# vtk DataFile Version 3.0
vtk output
ASCII
DATASET RECTILINEAR_GRID
FIELD FieldData 3
MeshName 1 1 string
amr_mesh

CYCLE 1 1 int
80000 
TIME 1 1 double
8 
DIMENSIONS 11 11 30
X_COORDINATES 11 double
-0.0625 -0.05 -0.0375 -0.025 -0.0125 0 0.0125 0.025 0.0375 
0.05 0.0625 
Y_COORDINATES 11 double
-0.0625 -0.05 -0.0375 -0.025 -0.0125 0 0.0125 0.025 0.0375 
0.05 0.0625 
Z_COORDINATES 30 double
-0.5 -0.465517 -0.431034 -0.396552 -0.362069 -0.327586 -0.293103 -0.258621 -0.224138 
-0.189655 -0.155172 -0.12069 -0.0862069 -0.0517241 -0.0172414 0.0172414 0.0517241 0.0862069 
0.12069 0.155172 0.189655 0.224138 0.258621 0.293103 0.327586 0.362069 0.396552 
0.431034 0.465517 0.5 
POINT_DATA 3630
VECTORS U double
5.02221e-006 -9.0795e-008 -1.64105e-007 6.01741e-006 -2.70123e-007 -4.68665e-007 1.04338e-005 -5.55957e-007 -8.36303e-007 
1.32747e-005 -5.98387e-007 -8.47608e-007 1.81515e-005 -3.83812e-007 -4.93863e-007 1.93472e-005 -1.37333e-007 -1.76159e-007 
1.81626e-005 3.89793e-007 4.89476e-007 1.32919e-005 6.04539e-007 8.44889e-007 1.045e-005 5.6172e-007 8.34536e-007 
6.02586e-006 2.74922e-007 4.68317e-007 5.02513e-006 9.53208e-008 1.64073e-007 4.32465e-006 -2.63442e-007 -1.77079e-007 
5.324e-006 -7.7601e-007 -5.06164e-007 9.74926e-006 -1.62249e-006 -8.88263e-007 1.26097e-005 -1.75848e-006 -9.02609e-007 
1.75871e-005 -1.14869e-006 -5.303e-007 1.88249e-005 -4.16664e-007 -1.89291e-007 1.75983e-005 1.15685e-006 5.26382e-007 
1.26261e-005 1.76973e-006 9.00378e-007 9.76438e-006 1.63364e-006 8.86937e-007 5.33173e-006 7.86149e-007 5.06206e-007 
4.32732e-006 2.73275e-007 1.77434e-007 1.19913e-006 -5.23418e-007 -2.31365e-007 2.24406e-006 -1.54979e-006 -6.65238e-007 
2.99778e-006 -1.61598e-006 -2.89256e-007 5.36955e-006 -1.91479e-006 -3.00397e-007 7.64366e-006 -1.51541e-006 -2.13873e-007 
8.84664e-006 -2.5559e-007 -3.31288e-008 7.64983e-006 1.5263e-006 2.13754e-007 5.37402e-006 1.92869e-006 3.00855e-007 
2.99987e-006 1.62775e-006 2.89543e-007 2.24953e-006 1.56484e-006 6.6677e-007 1.2011e-006 5.38291e-007 2.33307e-007 
-8.81144e-007 -5.53777e-007 -2.61944e-007 1.12335e-007 -1.6441e-006 -7.55065e-007 1.18522e-006 -1.82861e-006 -3.56095e-007 
1.7092e-006 -1.23004e-006 -1.05908e-007 2.89302e-006 -1.08271e-006 -7.66197e-008 3.57215e-006 -1.13267e-007 3.05078e-009 
2.89803e-006 1.09319e-006 8.19368e-008 1.69166e-006 1.23702e-006 1.0727e-007 1.18274e-006 1.83628e-006 3.5682e-007 
1.16841e-007 1.65786e-006 7.57591e-007 -8.79442e-007 5.67539e-007 2.64883e-007 -4.4817e-006 -3.41634e-007 -3.14198e-007 
-3.64122e-006 -1.02036e-006 -9.10491e-007 -6.08652e-007 -1.35525e-006 -4.19808e-007 5.02437e-007 -9.35442e-007 -1.19918e-007 
9.11399e-007 -8.07067e-007 -5.53935e-008 -3.30797e-007 -2.17486e-007 4.91654e-009 9.54293e-007 7.38464e-007 1.00936e-007 
4.80964e-007 9.06747e-007 1.21188e-007 -6.11627e-007 1.35066e-006 4.21781e-007 -3.63629e-006 1.02518e-006 9.14738e-007 
-4.47985e-006 3.47252e-007 3.18797e-007 -5.36502e-006 -1.23271e-007 -3.27029e-007 -4.57597e-006 -3.67419e-007 -9.48795e-007 
-1.5416e-006 -2.26125e-007 -4.52697e-007 -1.39266e-007 -1.14787e-007 -1.31817e-007 -1.4463e-007 -3.76211e-008 -2.56915e-008 
2.98998e-007 -6.50626e-008 -6.95632e-009 2.95764e-007 -1.16882e-007 -1.11859e-008 -1.24606e-007 5.75392e-008 1.30043e-007 
-1.53369e-006 2.14252e-007 4.53367e-007 -4.56955e-006 3.66914e-007 9.5334e-007 -5.36279e-006 1.23473e-007 3.31995e-007 
-4.4825e-006 3.39124e-007 -3.14241e-007 -3.64301e-006 1.01649e-006 -9.10603e-007 -6.17999e-007 1.34374e-006 -4.21424e-007 
4.71809e-007 8.9842e-007 -1.27718e-007 9.38035e-007 7.83951e-007 -6.62181e-008 -2.89414e-007 1.93261e-007 -3.34653e-008 
9.73312e-007 -8.07158e-007 9.02153e-008 4.95431e-007 -9.4761e-007 1.2378e-007 -6.06571e-007 -1.35716e-006 4.21375e-007 
-3.63595e-006 -1.02637e-006 9.14762e-007 -4.48008e-006 -3.48925e-007 3.18782e-007 -8.82252e-007 5.52765e-007 -2.61994e-007 
1.10077e-007 1.64261e-006 -7.55123e-007 1.17814e-006 1.82829e-006 -3.56778e-007 1.70107e-006 1.24169e-006 -1.07153e-007 
2.88181e-006 1.0776e-006 -7.48432e-008 3.55417e-006 1.16845e-007 -1.26582e-008 2.91293e-006 -1.08186e-006 7.3442e-008 
1.71798e-006 -1.2435e-006 1.05996e-007 1.18913e-006 -1.83757e-006 3.56558e-007 1.17344e-007 -1.6579e-006 7.57597e-007 
-8.79742e-007 -5.68036e-007 2.64847e-007 1.19817e-006 5.23235e-007 -2.31423e-007 2.2422e-006 1.54937e-006 -6.65303e-007 
2.99332e-006 1.61964e-006 -2.89508e-007 5.36539e-006 1.91993e-006 -3.00748e-007 7.6365e-006 1.51989e-006 -2.1396e-007 
8.84321e-006 2.64571e-007 -3.57643e-008 7.65192e-006 -1.51766e-006 2.12548e-007 5.37904e-006 -1.92291e-006 3.00091e-007 
3.00464e-006 -1.62449e-006 2.89293e-007 2.24999e-006 -1.56425e-006 6.66767e-007 1.20087e-006 -5.38111e-007 2.33258e-007 
4.32416e-006 2.64553e-007 -1.77113e-007 5.32304e-006 7.7715e-007 -5.06204e-007 9.74781e-006 1.62457e-006 -8.88249e-007 
1.2608e-005 1.761e-006 -9.02647e-007 1.7585e-005 1.15247e-006 -5.30394e-007 1.88231e-005 4.21384e-007 -1.89521e-007 
1.75977e-005 -1.15174e-006 5.26166e-007 1.26264e-005 -1.76554e-006 9.00277e-007 9.76479e-006 -1.63021e-006 8.86888e-007 
5.33203e-006 -7.84384e-007 5.06165e-007 4.32723e-006 -2.71947e-007 1.77399e-007 5.02205e-006 9.22056e-008 -1.64114e-007 
6.0171e-006 2.71608e-007 -4.68681e-007 1.04333e-005 5.58232e-007 -8.3633e-007 1.32741e-005 6.01185e-007 -8.47653e-007 
1.81509e-005 3.87946e-007 -4.93952e-007 1.93466e-005 1.42167e-007 -1.76281e-007 1.81625e-005 -3.84728e-007 4.89363e-007 
1.32919e-005 -6.00424e-007 8.44831e-007 1.04502e-005 -5.58311e-007 8.34499e-007 6.02595e-006 -2.72882e-007 4.68303e-007 
5.02509e-006 -9.372e-008 1.64063e-007 9.26072e-005 -6.21533e-007 -3.88633e-006 9.75761e-005 -1.83251e-006 -1.11079e-005 
0.000119624 -3.61865e-006 -1.9934e-005 0.000133846 -3.87817e-006 -2.01496e-005 0.000158357 -2.48166e-006 -1.1652e-005 
0.000164383 -8.97263e-007 -4.15524e-006 0.000158418 2.48864e-006 1.15252e-005 0.000133944 3.89173e-006 2.00683e-005 
0.000119718 3.63392e-006 1.98794e-005 9.76259e-005 1.84896e-006 1.10948e-005 9.26245e-005 6.38081e-007 3.88272e-006 
8.66439e-005 -1.80003e-006 -4.0707e-006 9.1494e-005 -5.31934e-006 -1.16519e-005 0.000113175 -1.06047e-005 -2.0971e-005 
0.00012731 -1.14449e-005 -2.12406e-005 0.000152047 -7.43588e-006 -1.23231e-005 0.000158219 -2.70112e-006 -4.39264e-006 
0.00015211 7.4572e-006 1.22065e-005 0.000127407 1.14879e-005 2.11703e-005 0.000113267 1.06525e-005 2.09276e-005 
9.15422e-005 5.3701e-006 1.16501e-005 8.66606e-005 1.85108e-006 4.07836e-006 6.02728e-005 -3.44332e-006 -4.8913e-006 
6.43516e-005 -1.02477e-005 -1.40808e-005 7.79611e-005 -1.84863e-005 -2.22398e-005 9.68966e-005 -2.16675e-005 -2.29051e-005 
0.000115032 -1.68442e-005 -1.55758e-005 0.000124518 -2.83103e-006 -2.4685e-006 0.000115105 1.68885e-005 1.55087e-005 
9.69793e-005 2.17445e-005 2.28721e-005 7.80335e-005 1.85697e-005 2.22433e-005 6.43923e-005 1.03387e-005 1.4127e-005 
6.0287e-005 3.53452e-006 4.94699e-006 4.32643e-005 -3.62111e-006 -5.42164e-006 4.65928e-005 -1.08282e-005 -1.56546e-005 
4.9126e-005 -2.08913e-005 -2.62915e-005 6.31988e-005 -2.72424e-005 -2.8151e-005 7.58467e-005 -2.23402e-005 -1.76293e-005 
8.20547e-005 -2.11757e-006 -1.42137e-006 7.58913e-005 2.24104e-005 1.76029e-005 6.32531e-005 2.73335e-005 2.81608e-005 
4.91788e-005 2.09738e-005 2.63354e-005 4.66287e-005 1.09181e-005 1.57306e-005 4.32771e-005 3.71135e-006 5.50703e-006 
1.40225e-005 -2.22948e-006 -6.32387e-006 1.55475e-005 -6.722e-006 -1.83234e-005 2.13539e-005 -1.53983e-005 -2.96637e-005 
2.41763e-005 -2.00472e-005 -3.0043e-005 1.77785e-005 -1.37588e-005 -1.19609e-005 -6.35099e-006 3.25347e-007 2.5271e-007 
1.76497e-005 1.38442e-005 1.19906e-005 2.41621e-005 2.00928e-005 3.00893e-005 2.13942e-005 1.5443e-005 2.97421e-005 
1.55788e-005 6.76889e-006 1.84483e-005 1.40338e-005 2.2777e-006 6.45805e-006 6.87264e-006 -8.0028e-007 -6.54106e-006 
7.85153e-006 -2.41583e-006 -1.89616e-005 7.20357e-006 -2.5007e-006 -3.11144e-005 5.29256e-006 -1.71221e-006 -2.92594e-005 
-3.66931e-008 9.84127e-007 2.25553e-006 3.38861e-006 5.32681e-008 7.03741e-008 -1.6641e-009 -8.47589e-007 -2.25928e-006 
5.40071e-006 1.69341e-006 2.9319e-005 7.26664e-006 2.50597e-006 3.12081e-005 7.88473e-006 2.42957e-006 1.9098e-005 
6.88433e-006 8.14853e-007 6.68665e-006 1.40201e-005 2.22383e-006 -6.32415e-006 1.55435e-005 6.71105e-006 -1.83237e-005 
2.13368e-005 1.53737e-005 -2.96651e-005 2.4105e-005 2.00172e-005 -3.00441e-005 1.77978e-005 1.38512e-005 -1.1962e-005 
-4.96225e-006 -3.8075e-007 2.20477e-007 1.77382e-005 -1.38561e-005 1.19894e-005 2.41687e-005 -2.00701e-005 3.0088e-005 
2.13927e-005 -1.5431e-005 2.97418e-005 1.55766e-005 -6.76509e-006 1.8448e-005 1.40318e-005 -2.27853e-006 6.45781e-006 
4.32605e-005 3.61653e-006 -5.42209e-006 4.65875e-005 1.08201e-005 -1.56552e-005 4.91147e-005 2.08767e-005 -2.62925e-005 
6.31937e-005 2.72303e-005 -2.81525e-005 7.57973e-005 2.23129e-005 -1.7631e-005 8.19986e-005 2.14388e-006 -1.42115e-006 
7.58881e-005 -2.23723e-005 1.76013e-005 6.32431e-005 -2.73308e-005 2.81593e-005 4.91728e-005 -2.09661e-005 2.63347e-005 
4.66248e-005 -1.0916e-005 1.57301e-005 4.32736e-005 -3.71245e-006 5.50661e-006 6.02691e-005 3.43937e-006 -4.89172e-006 
6.43469e-005 1.02412e-005 -1.40813e-005 7.79533e-005 1.84767e-005 -2.22405e-005 9.68839e-005 2.16571e-005 -2.29059e-005 
0.000115011 1.68352e-005 -1.55765e-005 0.000124501 2.83956e-006 -2.46999e-006 0.000115089 -1.6879e-005 1.55071e-005 
9.69695e-005 -2.17376e-005 2.2871e-005 7.80276e-005 -1.85656e-005 2.22426e-005 6.43886e-005 -1.03376e-005 1.41265e-005 
6.02837e-005 -3.5358e-006 4.94658e-006 8.66419e-005 1.79702e-006 -4.07092e-006 9.14916e-005 5.31489e-006 -1.16522e-005 
0.000113171 1.05984e-005 -2.09714e-005 0.000127304 1.14385e-005 -2.1241e-005 0.000152039 7.43147e-006 -1.23237e-005 
0.000158211 2.6997e-006 -4.39329e-006 0.000152103 -7.45564e-006 1.22058e-005 0.000127403 -1.14854e-005 2.11698e-005 
0.000113263 -1.06505e-005 2.09272e-005 9.15402e-005 -5.37015e-006 1.16498e-005 8.66588e-005 -1.85253e-006 4.07814e-006 
9.26065e-005 6.18717e-007 -3.88641e-006 9.75752e-005 1.82851e-006 -1.1108e-005 0.000119623 3.61315e-006 -1.99341e-005 
0.000133844 3.8728e-006 -2.01497e-005 0.000158354 2.47828e-006 -1.16521e-005 0.000164381 8.95797e-007 -4.15546e-006 
0.000158416 -2.48783e-006 1.1525e-005 0.000133943 -3.89009e-006 2.00681e-005 0.000119717 -3.63255e-006 1.98792e-005 
9.76252e-005 -1.84924e-006 1.10947e-005 9.26238e-005 -6.3956e-007 3.88264e-006 0.000282367 -1.55613e-006 -9.7863e-006 
0.000291557 -4.60224e-006 -2.79551e-005 0.000332893 -9.11279e-006 -5.028e-005 0.000360009 -9.78251e-006 -5.08871e-005 
0.000407567 -6.27081e-006 -2.95075e-005 0.000419421 -2.26646e-006 -1.05782e-005 0.000407717 6.29395e-006 2.90389e-005 
0.000360253 9.82368e-006 5.05756e-005 0.000333126 9.16022e-006 5.00591e-005 0.00029168 4.65565e-006 2.78738e-005 
0.00028241 1.61044e-006 9.73629e-006 0.000267435 -4.51784e-006 -1.02959e-005 0.000276283 -1.3387e-005 -2.94746e-005 
0.000316523 -2.67657e-005 -5.3188e-005 0.000343335 -2.89376e-005 -5.39331e-005 0.000391354 -1.88331e-005 -3.13582e-005 
0.000403555 -6.83894e-006 -1.12281e-005 0.000391507 1.88989e-005 3.0926e-005 0.000343576 2.90591e-005 5.3663e-005 
0.000316751 2.6905e-005 5.30101e-005 0.000276403 1.35428e-005 2.94376e-005 0.000267476 4.67622e-006 1.02905e-005 
0.000201223 -8.69768e-006 -1.25672e-005 0.000207895 -2.59674e-005 -3.62558e-005 0.000261105 -5.28585e-005 -6.53331e-005 
0.00029822 -6.22027e-005 -6.72953e-005 0.000336133 -4.83995e-005 -4.56896e-005 0.000356885 -8.12781e-006 -7.28528e-006 
0.000336328 4.8536e-005 4.53894e-005 0.000298455 6.24358e-005 6.71419e-005 0.00026131 5.31354e-005 6.53353e-005 
0.000207995 2.6248e-005 3.64096e-005 0.000201258 8.9819e-006 1.2753e-005 0.000158358 -9.18553e-006 -1.40366e-005 
0.000162953 -2.75672e-005 -4.06459e-005 0.0001777 -6.04134e-005 -7.82047e-005 0.000197571 -7.9195e-005 -8.1901e-005 
0.000220421 -6.47236e-005 -5.08835e-005 0.000232728 -6.11386e-006 -4.12058e-006 0.000220583 6.48872e-005 5.07457e-005 
0.000197737 7.94581e-005 8.19304e-005 0.000177855 6.06974e-005 7.83932e-005 0.000163039 2.78494e-005 4.09182e-005 
0.000158388 9.47111e-006 1.43414e-005 8.43235e-005 -5.69645e-006 -1.6543e-005 8.39299e-005 -1.72566e-005 -4.81081e-005 
9.65206e-005 -4.50613e-005 -8.89589e-005 8.32307e-005 -5.95535e-005 -8.80237e-005 5.31388e-005 -4.10088e-005 -3.44947e-005 
-1.60586e-005 9.57728e-007 6.20565e-007 5.29711e-005 4.1106e-005 3.454e-005 8.33012e-005 5.97055e-005 8.81963e-005 
9.66332e-005 4.52442e-005 8.93027e-005 8.39938e-005 1.74152e-005 4.8576e-005 8.4346e-005 5.85764e-006 1.7044e-005 
6.61521e-005 -2.04519e-006 -1.71482e-005 6.42427e-005 -6.20846e-006 -4.98993e-005 5.47352e-005 -7.35698e-006 -9.36423e-005 
2.65351e-005 -5.09884e-006 -8.61317e-005 -1.79731e-007 1.03113e-006 6.71081e-006 1.07683e-005 2.05156e-007 4.36731e-007 
-1.49806e-007 -9.98212e-007 -6.72833e-006 2.66515e-005 5.1037e-006 8.63648e-005 5.48453e-005 7.38346e-006 9.40596e-005 
6.43031e-005 6.26211e-006 5.04134e-005 6.61733e-005 2.10005e-006 1.76956e-005 8.43215e-005 5.69211e-006 -1.65432e-005 
8.3927e-005 1.72485e-005 -4.81083e-005 9.65106e-005 4.50464e-005 -8.89569e-005 8.3197e-005 5.95377e-005 -8.80094e-005 
5.315e-005 4.10458e-005 -3.44833e-005 -1.54738e-005 -9.75047e-007 7.20153e-007 5.30023e-005 -4.11101e-005 3.45514e-005 
8.3303e-005 -5.96926e-005 8.81946e-005 9.66316e-005 -4.5237e-005 8.93031e-005 8.3992e-005 -1.74126e-005 4.85758e-005 
8.43443e-005 -5.85845e-006 1.70439e-005 0.000158355 9.18196e-006 -1.4037e-005 0.000162948 2.75611e-005 -4.06463e-005 
0.000177692 6.04036e-005 -7.82041e-005 0.000197564 7.91853e-005 -8.19007e-005 0.000220398 6.47103e-005 -5.08888e-005 
0.000232705 6.12267e-006 -4.10324e-006 0.000220577 -6.48682e-005 5.07563e-005 0.00019773 -7.94546e-005 8.19306e-005 
0.000177851 -6.06923e-005 7.83931e-005 0.000163036 -2.7848e-005 4.09179e-005 0.000158385 -9.47206e-006 1.4341e-005 
0.00020122 8.69455e-006 -1.25675e-005 0.000207891 2.59623e-005 -3.62562e-005 0.000261099 5.28516e-005 -6.53333e-005 
0.000298211 6.21954e-005 -6.72955e-005 0.00033612 4.83935e-005 -4.56901e-005 0.000356873 8.13107e-006 -7.28239e-006 
0.000336318 -4.85306e-005 4.53904e-005 0.000298449 -6.24312e-005 6.71423e-005 0.000261306 -5.31324e-005 6.53351e-005 
0.000207992 -2.62472e-005 3.64092e-005 0.000201255 -8.98296e-006 1.27527e-005 0.000267433 4.51537e-006 -1.02961e-005 
0.000276281 1.33833e-005 -2.94748e-005 0.00031652 2.67606e-005 -5.31881e-005 0.00034333 2.89326e-005 -5.39331e-005 
0.000391348 1.88299e-005 -3.13581e-005 0.000403549 6.83777e-006 -1.12278e-005 0.000391502 -1.88976e-005 3.09261e-005 
0.000343572 -2.90569e-005 5.36629e-005 0.000316748 -2.69032e-005 5.301e-005 0.000276401 -1.35428e-005 2.94374e-005 
0.000267475 -4.67738e-006 1.02903e-005 0.000282367 1.5538e-006 -9.78636e-006 0.000291557 4.59891e-006 -2.79552e-005 
0.000332892 9.1083e-006 -5.028e-005 0.000360008 9.77815e-006 -5.08871e-005 0.000407565 6.26818e-006 -2.95074e-005 
0.000419419 2.26534e-006 -1.05781e-005 0.000407716 -6.29305e-006 2.90389e-005 0.000360252 -9.82206e-006 5.05755e-005 
0.000333125 -9.15888e-006 5.00591e-005 0.00029168 -4.65579e-006 2.78737e-005 0.000282409 -1.61163e-006 9.73623e-006 
0.000905291 -4.29846e-006 -1.49114e-005 0.000921846 -1.28138e-005 -4.23894e-005 0.000998916 -2.57385e-005 -7.75332e-005 
0.00105156 -2.78342e-005 -7.94086e-005 0.00114754 -1.80273e-005 -4.71781e-005 0.00117218 -6.5359e-006 -1.73285e-005 
0.00114802 1.80859e-005 4.54755e-005 0.00105229 2.7979e-005 7.82035e-005 0.000999596 2.59156e-005 7.65886e-005 
0.000922184 1.30212e-005 4.18072e-005 0.000905407 4.50993e-006 1.44041e-005 0.000867332 -1.2537e-005 -1.61075e-005 
0.000882768 -3.7443e-005 -4.60578e-005 0.00095629 -7.59926e-005 -8.49762e-005 0.001008 -8.27899e-005 -8.74483e-005 
0.00110557 -5.44387e-005 -5.23057e-005 0.00113133 -1.98248e-005 -1.91454e-005 0.00110605 5.46093e-005 5.07301e-005 
0.00100871 8.32162e-005 8.64043e-005 0.000956932 7.65099e-005 8.41999e-005 0.000883078 3.80425e-005 4.56389e-005 
0.000867437 1.3147e-005 1.57599e-005 0.000697082 -2.45586e-005 -2.16165e-005 0.000705422 -7.39725e-005 -6.30149e-005 
0.000732435 -0.000137331 -0.000110295 0.000795509 -0.000163407 -0.000117217 0.000868142 -0.000127853 -8.17955e-005 
0.000910681 -2.15094e-005 -1.34253e-005 0.000868665 0.00012823 8.08603e-005 0.000796083 0.000164151 0.000116759 
0.000732859 0.000138279 0.000110249 0.000705584 7.50937e-005 6.33347e-005 0.000697134 2.56903e-005 2.19861e-005 
0.000585249 -2.62056e-005 -2.5338e-005 0.000586842 -7.94028e-005 -7.45145e-005 0.00052699 -0.00015989 -0.00014342 
0.000513018 -0.000201537 -0.000153153 0.000548314 -0.000164531 -9.82953e-005 0.000570242 -1.54244e-005 -8.13157e-006 
0.000548718 0.000164942 9.79767e-005 0.00051333 0.000202334 0.000153406 0.000527168 0.000160906 0.000144108 
0.000586892 8.05616e-005 7.53233e-005 0.000585262 2.73707e-005 2.6178e-005 0.000389147 -1.65293e-005 -3.19948e-005 
0.000374421 -5.06299e-005 -9.51335e-005 0.000321662 -0.000121341 -0.000173401 0.000231658 -0.000155194 -0.000176037 
0.000137113 -0.000106611 -7.18448e-005 -3.87203e-005 2.36344e-006 1.36995e-006 0.00013672 0.000106758 7.2041e-005 
0.000231736 0.000155669 0.000176827 0.000321612 0.000122036 0.000174744 0.000374267 5.1319e-005 9.68007e-005 
0.000389087 1.72195e-005 3.36547e-005 0.000340444 -5.95461e-006 -3.36643e-005 0.000320706 -1.82891e-005 -0.000100305 
0.000213723 -1.99863e-005 -0.000187518 8.69946e-005 -1.3512e-005 -0.000177582 -5.23179e-007 1.95508e-006 1.4429e-005 
2.86607e-005 5.05183e-007 9.7242e-007 -4.87918e-007 -1.97145e-006 -1.44853e-005 8.70321e-005 1.35545e-005 0.000178533 
0.000213578 2.00937e-005 0.000189167 0.000320501 1.85334e-005 0.000102185 0.000340365 6.19928e-006 3.55263e-005 
0.000389147 1.65289e-005 -3.19949e-005 0.000374421 5.06293e-005 -9.51335e-005 0.000321662 0.000121341 -0.0001734 
0.000231663 0.000155195 -0.000176036 0.000137111 0.000106602 -7.18436e-005 -3.88452e-005 -2.35798e-006 1.39798e-006 
0.000136712 -0.000106757 7.20422e-005 0.000231735 -0.00015567 0.000176827 0.000321611 -0.000122036 0.000174744 
0.000374267 -5.13188e-005 9.68006e-005 0.000389086 -1.72196e-005 3.36547e-005 0.000585249 2.62052e-005 -2.53382e-005 
0.000586841 7.94022e-005 -7.45146e-005 0.000526989 0.000159889 -0.00014342 0.000513016 0.000201535 -0.000153153 
0.000548316 0.000164532 -9.82953e-005 0.000570247 1.54212e-005 -8.1309e-006 0.000548717 -0.000164945 9.79776e-005 
0.000513329 -0.000202333 0.000153406 0.000527168 -0.000160905 0.000144108 0.000586892 -8.05615e-005 7.53232e-005 
0.000585261 -2.73708e-005 2.61779e-005 0.000697082 2.45581e-005 -2.16166e-005 0.000705421 7.39718e-005 -6.3015e-005 
0.000732434 0.00013733 -0.000110295 0.000795509 0.000163406 -0.000117217 0.000868142 0.000127852 -8.17955e-005 
0.000910681 2.1508e-005 -1.3425e-005 0.000868664 -0.00012823 8.08605e-005 0.000796083 -0.000164151 0.000116759 
0.000732859 -0.000138278 0.000110249 0.000705583 -7.50936e-005 6.33346e-005 0.000697133 -2.56905e-005 2.19859e-005 
0.000867332 1.25365e-005 -1.61075e-005 0.000882768 3.74422e-005 -4.60579e-005 0.00095629 7.59916e-005 -8.49762e-005 
0.001008 8.27889e-005 -8.74483e-005 0.00110557 5.4438e-005 -5.23056e-005 0.00113133 1.98242e-005 -1.91453e-005 
0.00110605 -5.46094e-005 5.07301e-005 0.00100871 -8.32159e-005 8.64044e-005 0.000956932 -7.65096e-005 8.41998e-005 
0.000883078 -3.80425e-005 4.56388e-005 0.000867436 -1.31472e-005 1.57598e-005 0.000905291 4.29798e-006 -1.49114e-005 
0.000921846 1.28131e-005 -4.23894e-005 0.000998916 2.57375e-005 -7.75332e-005 0.00105156 2.78332e-005 -7.94086e-005 
0.00114754 1.80265e-005 -4.71781e-005 0.00117218 6.53533e-006 -1.73285e-005 0.00114802 -1.80859e-005 4.54755e-005 
0.00105229 -2.79788e-005 7.82034e-005 0.000999596 -2.59153e-005 7.65886e-005 0.000922184 -1.30212e-005 4.18072e-005 
0.000905407 -4.51016e-006 1.44041e-005 0.00214227 -7.14709e-006 -4.48132e-006 0.00216094 -2.15136e-005 -1.14784e-005 
0.00225209 -4.47268e-005 -2.17602e-005 0.00231786 -4.94108e-005 -2.32628e-005 0.00244444 -3.32433e-005 -1.54226e-005 
0.00247832 -1.23186e-005 -6.60896e-006 0.00244559 3.29538e-005 1.24348e-005 0.00231949 4.95323e-005 2.09163e-005 
0.00225352 4.49901e-005 1.96947e-005 0.00216159 2.18951e-005 9.7362e-006 0.00214249 7.54149e-006 2.79514e-006 
0.00208306 -2.10062e-005 -5.04034e-006 0.00209908 -6.34124e-005 -1.33723e-005 0.00218119 -0.000133776 -2.63585e-005 
0.00224405 -0.000149315 -2.87702e-005 0.00237306 -0.000102512 -1.96276e-005 0.00240933 -3.81824e-005 -8.20882e-006 
0.00237425 0.000101683 1.66863e-005 0.00224559 0.000149736 2.66236e-005 0.00218247 0.000134598 2.45152e-005 
0.00209962 6.45414e-005 1.18294e-005 0.00208324 2.21633e-005 3.54162e-006 0.00181226 -4.25378e-005 -7.90543e-006 
0.00181104 -0.000130153 -2.32094e-005 0.00198011 -0.000269548 -3.49611e-005 0.00203533 -0.000340535 -4.6182e-005 
0.00213094 -0.00028117 -3.98751e-005 0.00219932 -4.99391e-005 -8.48595e-006 0.00213235 0.00027991 3.74105e-005 
0.00203628 0.000341622 4.49278e-005 0.00198035 0.000271662 3.41498e-005 0.00181087 0.000132505 2.26725e-005 
0.00181219 4.4859e-005 7.31562e-006 0.0016297 -4.63324e-005 -1.01123e-005 0.00161166 -0.000143097 -3.09295e-005 
0.0015739 -0.000334593 -6.29152e-005 0.00140579 -0.000472575 -0.000110828 0.00140988 -0.000411808 -9.57825e-005 
0.00143761 -4.04617e-005 -1.03093e-005 0.00141031 0.000411694 9.5111e-005 0.00140434 0.000475097 0.000112424 
0.00157198 0.000337616 6.39716e-005 0.00161083 0.000145705 3.11653e-005 0.00162941 4.88441e-005 1.0183e-005 
0.00130047 -3.02552e-005 -1.46297e-005 0.00124028 -9.50719e-005 -4.7112e-005 0.00113217 -0.000269762 -9.81143e-005 
0.00071529 -0.00039812 -0.000179871 0.000375047 -0.000291392 -0.000109096 -9.75095e-005 6.0619e-006 2.34649e-006 
0.000372777 0.00029167 0.000111807 0.000710491 0.000400537 0.000186296 0.00112717 0.000272439 0.000101782 
0.00123787 9.68236e-005 4.8961e-005 0.00129966 3.1875e-005 1.59917e-005 0.00121685 -1.09908e-005 -1.58833e-005 
0.00114333 -3.46901e-005 -5.16883e-005 0.00088469 -4.58285e-005 -0.000119407 0.000328266 -3.63695e-005 -0.000211705 
1.78451e-006 6.30022e-006 2.46369e-005 6.80239e-005 1.16332e-006 3.73469e-006 1.72816e-006 -5.96477e-006 -2.56465e-005 
0.000322462 3.65883e-005 0.000220978 0.000877799 4.62991e-005 0.00012479 0.00114044 3.53308e-005 5.39963e-005 
0.00121589 1.15775e-005 1.7594e-005 0.00130047 3.02556e-005 -1.46298e-005 0.00124028 9.50726e-005 -4.7112e-005 
0.00113217 0.000269763 -9.81145e-005 0.000715294 0.000398123 -0.000179872 0.000375046 0.000291388 -0.000109097 
-9.75667e-005 -6.05973e-006 2.33841e-006 0.000372774 -0.00029167 0.000111806 0.000710491 -0.000400538 0.000186296 
0.00112717 -0.00027244 0.000101781 0.00123787 -9.68237e-005 4.89609e-005 0.00129966 -3.18748e-005 1.59917e-005 
0.0016297 4.63327e-005 -1.01123e-005 0.00161166 0.000143098 -3.09296e-005 0.0015739 0.000334593 -6.29153e-005 
0.00140579 0.000472575 -0.000110828 0.00140988 0.000411809 -9.57823e-005 0.00143762 4.04605e-005 -1.03109e-005 
0.00141031 -0.000411696 9.51102e-005 0.00140434 -0.000475098 0.000112424 0.00157198 -0.000337616 6.39715e-005 
0.00161083 -0.000145705 3.11652e-005 0.00162941 -4.8844e-005 1.0183e-005 0.00181226 4.2538e-005 -7.90548e-006 
0.00181104 0.000130153 -2.32094e-005 0.00198011 0.000269549 -3.49611e-005 0.00203533 0.000340536 -4.61821e-005 
0.00213094 0.00028117 -3.98752e-005 0.00219932 4.99386e-005 -8.48629e-006 0.00213235 -0.000279911 3.74104e-005 
0.00203628 -0.000341623 4.49277e-005 0.00198035 -0.000271662 3.41497e-005 0.00181087 -0.000132505 2.26725e-005 
0.00181219 -4.48589e-005 7.31557e-006 0.00208306 2.10064e-005 -5.04037e-006 0.00209908 6.34126e-005 -1.33724e-005 
0.00218119 0.000133776 -2.63585e-005 0.00224405 0.000149315 -2.87702e-005 0.00237306 0.000102512 -1.96277e-005 
0.00240933 3.81823e-005 -8.20891e-006 0.00237425 -0.000101683 1.66863e-005 0.00224559 -0.000149736 2.66236e-005 
0.00218247 -0.000134598 2.45151e-005 0.00209962 -6.45414e-005 1.18294e-005 0.00208324 -2.21632e-005 3.54158e-006 
0.00214227 7.1472e-006 -4.48133e-006 0.00216094 2.15137e-005 -1.14785e-005 0.00225209 4.47269e-005 -2.17603e-005 
0.00231786 4.94108e-005 -2.32628e-005 0.00244444 3.32431e-005 -1.54226e-005 0.00247832 1.23184e-005 -6.60899e-006 
0.00244559 -3.2954e-005 1.24348e-005 0.00231949 -4.95324e-005 2.09163e-005 0.00225352 -4.49902e-005 1.96947e-005 
0.00216159 -2.18951e-005 9.73619e-006 0.00214249 -7.54141e-006 2.79513e-006 0.00521156 -4.7874e-006 1.86695e-005 
0.00522752 -1.43298e-005 5.60564e-005 0.00530352 -2.90758e-005 0.000105684 0.00535639 -3.16323e-005 0.000109631 
0.00545454 -2.08462e-005 6.62545e-005 0.00548024 -7.90558e-006 2.39378e-005 0.00545611 2.00517e-005 -6.57065e-005 
0.00535872 3.13986e-005 -0.000110302 0.00530563 2.90651e-005 -0.000106966 0.00522855 1.45483e-005 -5.81709e-005 
0.0052119 5.04086e-006 -2.09543e-005 0.00517031 -1.40001e-005 2.07428e-005 0.0051849 -4.20055e-005 6.23105e-005 
0.00525654 -8.61567e-005 0.000119335 0.00530829 -9.44075e-005 0.000125184 0.00540837 -6.30544e-005 7.73449e-005 
0.00543543 -2.40012e-005 2.82407e-005 0.00541006 6.06587e-005 -7.63327e-005 0.00531066 9.37502e-005 -0.000125705 
0.00525862 8.61606e-005 -0.000120571 0.00518587 4.26599e-005 -6.44623e-005 0.00517063 1.47496e-005 -2.30748e-005 
0.00498393 -2.77258e-005 3.06838e-005 0.00498984 -8.40836e-005 9.27003e-005 0.0048515 -0.000176963 0.000170157 
0.00491276 -0.000213896 0.000195843 0.00499238 -0.000168897 0.000148788 0.00504167 -3.15634e-005 2.65135e-005 
0.00499486 0.000163872 -0.000146076 0.00491522 0.00021239 -0.000195622 0.00485302 0.000177558 -0.000171617 
0.00499036 8.55176e-005 -9.50907e-005 0.00498409 2.92794e-005 -3.32767e-005 0.00486033 -2.97846e-005 3.77774e-005 
0.00485801 -9.09806e-005 0.000114774 0.00459107 -0.000210806 0.000249812 0.00460031 -0.000270437 0.000311534 
0.00464969 -0.000221841 0.000255633 0.00468766 -4.13086e-005 4.80319e-005 0.0046519 0.000215836 -0.000249881 
0.00460157 0.000269344 -0.000310867 0.00459118 0.000211982 -0.000251544 0.00485806 9.26196e-005 -0.000117391 
0.00486034 3.14989e-005 -4.05861e-005 0.00464139 -1.89985e-005 5.12809e-005 0.00461921 -5.87793e-005 0.000157663 
0.00432548 -0.000162919 0.000337392 0.00425069 -0.000216925 0.000451656 0.00423064 -0.000158876 0.000368138 
0.00419355 -2.13848e-005 5.95945e-005 0.00422959 0.000155932 -0.000362258 0.00424852 0.000216877 -0.000451875 
0.00432315 0.000164198 -0.000339843 0.00461803 5.9937e-005 -0.000160838 0.00464099 2.01393e-005 -5.45581e-005 
0.00458658 -6.86233e-006 5.48444e-005 0.00455832 -2.12986e-005 0.000169167 0.00418447 -2.70552e-005 0.000386182 
0.00405979 -3.59037e-005 0.000529717 0.00401137 -1.98285e-005 0.0003677 0.00391311 -1.09671e-006 3.8155e-005 
0.00400765 1.97427e-005 -0.00036857 0.0040546 3.5982e-005 -0.000531613 0.00418039 2.73001e-005 -0.000389241 
0.00455674 2.17271e-005 -0.000172517 0.00458605 7.27852e-006 -5.82568e-005 0.00464139 1.89987e-005 5.12809e-005 
0.00461921 5.87795e-005 0.000157663 0.00432548 0.00016292 0.000337392 0.00425069 0.000216926 0.000451656 
0.00423064 0.000158876 0.000368138 0.00419355 2.1385e-005 5.95944e-005 0.00422959 -0.000155932 -0.000362258 
0.00424852 -0.000216877 -0.000451875 0.00432315 -0.000164198 -0.000339843 0.00461803 -5.9937e-005 -0.000160838 
0.00464099 -2.01393e-005 -5.45581e-005 0.00486033 2.97847e-005 3.77773e-005 0.00485801 9.09808e-005 0.000114774 
0.00459107 0.000210806 0.000249812 0.00460031 0.000270437 0.000311534 0.00464969 0.000221841 0.000255632 
0.00468766 4.13087e-005 4.80318e-005 0.0046519 -0.000215836 -0.000249881 0.00460157 -0.000269344 -0.000310867 
0.00459118 -0.000211982 -0.000251544 0.00485806 -9.26195e-005 -0.000117391 0.00486034 -3.14988e-005 -4.05861e-005 
0.00498393 2.77259e-005 3.06838e-005 0.00498984 8.40838e-005 9.27003e-005 0.0048515 0.000176963 0.000170156 
0.00491276 0.000213896 0.000195843 0.00499238 0.000168897 0.000148788 0.00504167 3.15635e-005 2.65134e-005 
0.00499486 -0.000163872 -0.000146076 0.00491522 -0.00021239 -0.000195622 0.00485302 -0.000177558 -0.000171617 
0.00499036 -8.55176e-005 -9.50907e-005 0.00498409 -2.92793e-005 -3.32767e-005 0.00517031 1.40002e-005 2.07427e-005 
0.0051849 4.20057e-005 6.23105e-005 0.00525654 8.61569e-005 0.000119335 0.00530829 9.44076e-005 0.000125184 
0.00540837 6.30544e-005 7.73449e-005 0.00543543 2.40013e-005 2.82407e-005 0.00541006 -6.06587e-005 -7.63328e-005 
0.00531066 -9.37503e-005 -0.000125705 0.00525862 -8.61606e-005 -0.000120571 0.00518587 -4.26599e-005 -6.44623e-005 
0.00517063 -1.47495e-005 -2.30748e-005 0.00521156 4.78751e-006 1.86695e-005 0.00522752 1.43299e-005 5.60564e-005 
0.00530352 2.90759e-005 0.000105684 0.00535639 3.16324e-005 0.000109631 0.00545454 2.08463e-005 6.62545e-005 
0.00548024 7.90559e-006 2.39378e-005 0.00545611 -2.00517e-005 -6.57066e-005 0.00535872 -3.13986e-005 -0.000110302 
0.00530563 -2.90651e-005 -0.000106966 0.00522855 -1.45482e-005 -5.81709e-005 0.0052119 -5.04078e-006 -2.09543e-005 
0.00855922 -1.34409e-006 1.51017e-005 0.00856932 -3.96862e-006 4.44631e-005 0.0086145 -7.47331e-006 8.11802e-005 
0.00864362 -7.75596e-006 8.26412e-005 0.00869359 -4.69914e-006 4.85074e-005 0.00870591 -1.72838e-006 1.76768e-005 
0.00869435 4.56459e-006 -4.71992e-005 0.00864488 7.71995e-006 -8.23096e-005 0.00861571 7.48606e-006 -8.13958e-005 
0.00856996 4.0449e-006 -4.5497e-005 0.00855944 1.43273e-006 -1.63153e-005 0.00854528 -3.87151e-006 1.61108e-005 
0.00855539 -1.14393e-005 4.74579e-005 0.00860088 -2.15829e-005 8.70145e-005 0.00863042 -2.24236e-005 8.88224e-005 
0.00868147 -1.36047e-005 5.23794e-005 0.00869412 -4.9999e-006 1.91127e-005 0.00868224 1.32322e-005 -5.09603e-005 
0.00863169 2.23322e-005 -8.84641e-005 0.00860209 2.16294e-005 -8.72398e-005 0.00855602 1.16638e-005 -4.85415e-005 
0.0085455 4.13037e-006 -1.73807e-005 0.00848445 -7.17333e-006 2.064e-005 0.00849445 -2.12583e-005 6.09514e-005 
0.00854066 -4.04258e-005 0.000113601 0.00857166 -4.21747e-005 0.000117156 0.00862689 -2.56928e-005 7.02344e-005 
0.00864087 -9.39434e-006 2.56955e-005 0.0086277 2.51529e-005 -6.84416e-005 0.00857291 4.21177e-005 -0.000116771 