# vtk DataFile Version 3.0
vtk output
ASCII
DATASET RECTILINEAR_GRID
FIELD FieldData 3
MeshName 1 1 string
amr_mesh

CYCLE 1 1 int
100000 
TIME 1 1 double
10 
DIMENSIONS 11 11 30
X_COORDINATES 11 double
-0.0625 -0.05 -0.0375 -0.025 -0.0125 0 0.0125 0.025 0.0375 
0.05 0.0625 
Y_COORDINATES 11 double
-0.0625 -0.05 -0.0375 -0.025 -0.0125 0 0.0125 0.025 0.0375 
0.05 0.0625 
Z_COORDINATES 30 double
-0.5 -0.465517 -0.431034 -0.396552 -0.362069 -0.327586 -0.293103 -0.258621 -0.224138 
-0.189655 -0.155172 -0.12069 -0.0862069 -0.0517241 -0.0172414 0.0172414 0.0517241 0.0862069 
0.12069 0.155172 0.189655 0.224138 0.258621 0.293103 0.327586 0.362069 0.396552 
0.431034 0.465517 0.5 
POINT_DATA 3630
VECTORS U double
5.01064e-006 -9.0284e-008 -1.6391e-007 6.00415e-006 -2.69352e-007 -4.68209e-007 1.04148e-005 -5.54671e-007 -8.35619e-007 
1.32521e-005 -5.96948e-007 -8.47e-007 1.81237e-005 -3.82576e-007 -4.93778e-007 1.93186e-005 -1.36455e-007 -1.7645e-007 
1.81371e-005 3.89944e-007 4.8854e-007 1.32729e-005 6.04358e-007 8.43798e-007 1.04343e-005 5.6153e-007 8.33571e-007 
6.01435e-006 2.74993e-007 4.67871e-007 5.01415e-006 9.55944e-008 1.63953e-007 4.31396e-006 -2.62215e-007 -1.76838e-007 
5.31165e-006 -7.74041e-007 -5.0563e-007 9.73106e-006 -1.61919e-006 -8.87469e-007 1.2588e-005 -1.75487e-006 -9.01887e-007 
1.75595e-005 -1.14601e-006 -5.30128e-007 1.87964e-005 -4.15265e-007 -1.89544e-007 1.75731e-005 1.15602e-006 5.25411e-007 
1.26077e-005 1.7683e-006 8.99242e-007 9.74925e-006 1.6324e-006 8.85936e-007 5.32099e-006 7.85989e-007 5.05743e-007 
4.31718e-006 2.73778e-007 1.77329e-007 1.19234e-006 -5.21381e-007 -2.30924e-007 2.23574e-006 -1.54623e-006 -6.64376e-007 
2.99112e-006 -1.61276e-006 -2.88939e-007 5.35962e-006 -1.91071e-006 -3.00094e-007 7.62986e-006 -1.51181e-006 -2.13619e-007 
8.83159e-006 -2.55181e-007 -3.3377e-008 7.63783e-006 1.52416e-006 2.13343e-007 5.3656e-006 1.92646e-006 3.00439e-007 
2.99452e-006 1.62605e-006 2.89235e-007 2.24224e-006 1.56396e-006 6.6623e-007 1.19468e-006 5.38832e-007 2.33262e-007 
-8.8537e-007 -5.51809e-007 -2.61376e-007 1.06704e-007 -1.64046e-006 -7.53994e-007 1.18095e-006 -1.82487e-006 -3.55642e-007 
1.70566e-006 -1.22712e-006 -1.05768e-007 2.8854e-006 -1.07821e-006 -7.64082e-008 3.56083e-006 -1.13801e-007 1.8488e-009 
2.89072e-006 1.09017e-006 8.11051e-008 1.6894e-006 1.23521e-006 1.07096e-007 1.17931e-006 1.83398e-006 3.56451e-007 
1.1202e-007 1.6566e-006 7.57015e-007 -8.83365e-007 5.67876e-007 2.64882e-007 -4.48154e-006 -3.4071e-007 -3.13418e-007 
-3.64228e-006 -1.01821e-006 -9.09072e-007 -6.10822e-007 -1.35194e-006 -4.19302e-007 4.99412e-007 -9.31706e-007 -1.19846e-007 
9.06749e-007 -8.02953e-007 -5.35872e-008 -3.42544e-007 -2.33695e-007 8.2416e-010 9.44284e-007 7.39835e-007 1.00253e-007 
4.78507e-007 9.04636e-007 1.21191e-007 -6.12797e-007 1.34805e-006 4.21298e-007 -3.63639e-006 1.02368e-006 9.14084e-007 
-4.47933e-006 3.47019e-007 3.18864e-007 -5.36381e-006 -1.23112e-007 -3.26199e-007 -4.576e-006 -3.66583e-007 -9.47282e-007 
-1.54252e-006 -2.24689e-007 -4.51869e-007 -1.41309e-007 -1.10142e-007 -1.30317e-007 -1.70822e-007 -3.29369e-008 -2.46204e-008 
2.9385e-007 -6.00051e-008 -7.20582e-009 3.06812e-007 -1.15349e-007 -1.42095e-008 -1.24339e-007 5.7028e-008 1.29119e-007 
-1.5329e-006 2.13025e-007 4.52783e-007 -4.56828e-006 3.65799e-007 9.52667e-007 -5.36114e-006 1.23051e-007 3.32078e-007 
-4.48247e-006 3.37836e-007 -3.13464e-007 -3.64427e-006 1.01465e-006 -9.0919e-007 -6.19552e-007 1.34268e-006 -4.20788e-007 
4.72295e-007 9.00178e-007 -1.26843e-007 9.32554e-007 7.87553e-007 -6.30674e-008 -2.97234e-007 2.11518e-007 -3.26484e-008 
9.69274e-007 -8.05881e-007 9.08598e-008 4.93734e-007 -9.44456e-007 1.23427e-007 -6.07214e-007 -1.35599e-006 4.20958e-007 
-3.63574e-006 -1.02625e-006 9.14118e-007 -4.47953e-006 -3.49499e-007 3.18852e-007 -8.86638e-007 5.5072e-007 -2.61428e-007 
1.04224e-007 1.63928e-006 -7.54059e-007 1.17431e-006 1.82547e-006 -3.56288e-007 1.6984e-006 1.23846e-006 -1.06972e-007 
2.87678e-006 1.07571e-006 -7.48747e-008 3.54759e-006 1.18614e-007 -1.18771e-008 2.9075e-006 -1.08049e-006 7.35076e-008 
1.71485e-006 -1.24196e-006 1.05866e-007 1.18626e-006 -1.83602e-006 3.56203e-007 1.12934e-007 -1.65721e-006 7.57027e-007 
-8.83614e-007 -5.68699e-007 2.64849e-007 1.19124e-006 5.21247e-007 -2.3098e-007 2.23367e-006 1.5461e-006 -6.6444e-007 
2.98687e-006 1.61669e-006 -2.89184e-007 5.35609e-006 1.91653e-006 -3.00424e-007 7.62447e-006 1.51744e-006 -2.13705e-007 
8.83009e-006 2.64876e-007 -3.57123e-008 7.64185e-006 -1.51547e-006 2.12194e-007 5.37167e-006 -1.92096e-006 2.99716e-007 
2.99962e-006 -1.62303e-006 2.88992e-007 2.24303e-006 -1.56356e-006 6.6623e-007 1.19449e-006 -5.38742e-007 2.33216e-007 
4.3134e-006 2.63529e-007 -1.76871e-007 5.3106e-006 7.75443e-007 -5.05669e-007 9.7296e-006 1.62188e-006 -8.87454e-007 
1.25864e-005 1.75825e-006 -9.01912e-007 1.75581e-005 1.15112e-006 -5.302e-007 1.87955e-005 4.21407e-007 -1.89748e-007 
1.75735e-005 -1.14965e-006 5.25199e-007 1.26087e-005 -1.76339e-006 8.99139e-007 9.75016e-006 -1.62848e-006 8.85885e-007 
5.32141e-006 -7.83964e-007 5.05703e-007 4.3171e-006 -2.72243e-007 1.77294e-007 5.01045e-006 9.19278e-008 -1.63919e-007 
6.00381e-006 2.71097e-007 -4.68224e-007 1.04142e-005 5.57456e-007 -8.35645e-007 1.32516e-005 6.00458e-007 -8.47041e-007 
1.81232e-005 3.87833e-007 -4.93857e-007 1.93183e-005 1.42554e-007 -1.76561e-007 1.81372e-005 -3.83624e-007 4.88432e-007 
1.32732e-005 -5.99385e-007 8.43742e-007 1.04346e-005 -5.57481e-007 8.33535e-007 6.01447e-006 -2.72612e-007 4.67858e-007 
5.01412e-006 -9.37312e-008 1.63944e-007 9.24473e-005 -6.18928e-007 -3.88222e-006 9.74077e-005 -1.82829e-006 -1.10983e-005 
0.000119427 -3.61141e-006 -1.99203e-005 0.000133632 -3.87014e-006 -2.0138e-005 0.000158118 -2.4752e-006 -1.16527e-005 
0.000164141 -8.93177e-007 -4.16432e-006 0.000158192 2.48792e-006 1.15023e-005 0.000133751 3.88934e-006 2.00425e-005 
0.00011954 3.63179e-006 1.98567e-005 9.74673e-005 1.84871e-006 1.10846e-005 9.24679e-005 6.39174e-007 3.87993e-006 
8.64909e-005 -1.79289e-006 -4.06549e-006 9.1333e-005 -5.30741e-006 -1.16407e-005 0.000112986 -1.05847e-005 -2.09551e-005 
0.000127104 -1.14232e-005 -2.12267e-005 0.000151813 -7.42038e-006 -1.23223e-005 0.000157981 -2.69365e-006 -4.4008e-006 
0.000151888 7.44973e-006 1.21831e-005 0.000127219 1.1477e-005 2.11437e-005 0.000113095 1.06434e-005 2.09044e-005 
9.13901e-005 5.36804e-006 1.16401e-005 8.65107e-005 1.85349e-006 4.07621e-006 6.01502e-005 -3.43077e-006 -4.88121e-006 
6.42226e-005 -1.02254e-005 -1.40628e-005 7.78173e-005 -1.84507e-005 -2.22173e-005 9.67271e-005 -2.16241e-005 -2.28847e-005 
0.000114835 -1.68078e-005 -1.5566e-005 0.000124309 -2.82358e-006 -2.47483e-006 0.000114921 1.68651e-005 1.54842e-005 
9.68237e-005 2.17191e-005 2.28447e-005 7.79013e-005 1.85511e-005 2.22213e-005 6.42697e-005 1.03323e-005 1.41179e-005 
6.01666e-005 3.53749e-006 4.94771e-006 4.31613e-005 -3.60863e-006 -5.40845e-006 4.64848e-005 -1.08049e-005 -1.56322e-005 
4.90176e-005 -2.08488e-005 -2.62602e-005 6.30662e-005 -2.71777e-005 -2.81192e-005 7.56771e-005 -2.22755e-005 -1.76115e-005 
8.18588e-005 -2.11406e-006 -1.42391e-006 7.57317e-005 2.23667e-005 1.75775e-005 6.31247e-005 2.72919e-005 2.81289e-005 
4.90769e-005 2.09475e-005 2.63113e-005 4.65257e-005 1.09098e-005 1.57219e-005 4.31758e-005 3.71338e-006 5.50951e-006 
1.39533e-005 -2.223e-006 -6.30548e-006 1.54763e-005 -6.70736e-006 -1.82935e-005 2.12807e-005 -1.53616e-005 -2.96247e-005 
2.4096e-005 -1.99768e-005 -3.0003e-005 1.76678e-005 -1.36445e-005 -1.19376e-005 -6.40425e-006 3.36977e-007 2.61053e-007 
1.75202e-005 1.37575e-005 1.19725e-005 2.40825e-005 2.00358e-005 3.00557e-005 2.13267e-005 1.54147e-005 2.97161e-005 
1.55122e-005 6.75994e-006 1.84403e-005 1.39663e-005 2.27672e-006 6.46346e-006 6.81168e-006 -7.98767e-007 -6.52138e-006 
7.78935e-006 -2.40986e-006 -1.89299e-005 7.1499e-006 -2.48472e-006 -3.10721e-005 5.25241e-006 -1.66694e-006 -2.9221e-005 
-4.77582e-008 1.05248e-006 2.2401e-006 3.38325e-006 6.18957e-008 7.00713e-008 -9.77974e-009 -8.9258e-007 -2.24458e-006 
5.37399e-006 1.65565e-006 2.92873e-005 7.22332e-006 2.48972e-006 3.11813e-005 7.828e-006 2.42312e-006 1.90902e-005 
6.82529e-006 8.12646e-007 6.69278e-006 1.39504e-005 2.21538e-006 -6.30558e-006 1.54717e-005 6.69842e-006 -1.82936e-005 
2.12668e-005 1.53562e-005 -2.96261e-005 2.40477e-005 2.00088e-005 -3.00062e-005 1.77847e-005 1.38449e-005 -1.19425e-005 
-4.89988e-006 -3.73941e-007 2.07541e-007 1.7701e-005 -1.3851e-005 1.19675e-005 2.41163e-005 -2.00614e-005 3.00545e-005 
2.13334e-005 -1.54221e-005 2.9716e-005 1.55115e-005 -6.76401e-006 1.84403e-005 1.39645e-005 -2.28216e-006 6.46339e-006 
4.31566e-005 3.60302e-006 -5.4086e-006 4.64785e-005 1.07978e-005 -1.56324e-005 4.90091e-005 2.08448e-005 -2.62609e-005 
6.30809e-005 2.71941e-005 -2.81205e-005 7.56817e-005 2.2281e-005 -1.76129e-005 8.18783e-005 2.152e-006 -1.42703e-006 
7.57847e-005 -2.23453e-005 1.75742e-005 6.31417e-005 -2.73073e-005 2.81275e-005 4.90799e-005 -2.09489e-005 2.6311e-005 
4.65237e-005 -1.09113e-005 1.57218e-005 4.31724e-005 -3.7168e-006 5.50938e-006 6.01456e-005 3.42625e-006 -4.88135e-006 
6.42167e-005 1.02195e-005 -1.4063e-005 7.78104e-005 1.84458e-005 -2.22176e-005 9.67217e-005 2.16233e-005 -2.2885e-005 
0.000114832 1.68103e-005 -1.55661e-005 0.000124316 2.83999e-006 -2.47624e-006 0.000114926 -1.68553e-005 1.54829e-005 
9.68264e-005 -2.17144e-005 2.2844e-005 7.7901e-005 -1.85488e-005 2.2221e-005 6.42673e-005 -1.03329e-005 1.41177e-005 
6.01632e-005 -3.53997e-006 4.94758e-006 8.64884e-005 1.79e-006 -4.06556e-006 9.13298e-005 5.3033e-006 -1.16408e-005 
0.000112982 1.05805e-005 -2.09552e-005 0.000127099 1.14201e-005 -2.12268e-005 0.000151809 7.4213e-006 -1.23225e-005 
0.000157978 2.6978e-006 -4.40108e-006 0.000151887 -7.44364e-006 1.21828e-005 0.000127218 -1.14718e-005 2.11435e-005 
0.000113094 -1.06395e-005 2.09043e-005 9.13885e-005 -5.36741e-006 1.164e-005 8.65087e-005 -1.85468e-006 4.07614e-006 
9.24464e-005 6.16378e-007 -3.88225e-006 9.74066e-005 1.82459e-006 -1.10983e-005 0.000119426 3.60743e-006 -1.99203e-005 
0.000133631 3.86727e-006 -2.01381e-005 0.000158116 2.47621e-006 -1.16528e-005 0.00016414 8.96674e-007 -4.1644e-006 
0.000158191 -2.48226e-006 1.15022e-005 0.00013375 -3.88427e-006 2.00425e-005 0.00011954 -3.62785e-006 1.98567e-005 
9.74666e-005 -1.8479e-006 1.10846e-005 9.24672e-005 -6.40099e-007 3.8799e-006 0.000281935 -1.55012e-006 -9.78068e-006 
0.000291109 -4.59277e-006 -2.79402e-005 0.000332396 -9.09762e-006 -5.02618e-005 0.000359484 -9.76629e-006 -5.08763e-005 
0.000407 -6.25961e-006 -2.95266e-005 0.00041885 -2.2612e-006 -1.06155e-005 0.000407181 6.28802e-006 2.89756e-005 
0.000359776 9.81554e-006 5.05134e-005 0.000332674 9.1537e-006 5.0007e-005 0.000291255 4.65483e-006 2.78512e-005 
0.000281985 1.61298e-006 9.72889e-006 0.000267017 -4.49964e-006 -1.02864e-005 0.000275851 -1.33583e-005 -2.94548e-005 
0.000316044 -2.67202e-005 -5.31635e-005 0.000342827 -2.88893e-005 -5.39158e-005 0.000390801 -1.8801e-005 -3.13725e-005 
0.000402997 -6.82602e-006 -1.12623e-005 0.000390985 1.88768e-005 3.08625e-005 0.000343114 2.90319e-005 5.36003e-005 
0.000316314 2.68835e-005 5.29582e-005 0.000275992 1.35398e-005 2.94169e-005 0.000267066 4.68372e-006 1.02859e-005 
0.00020087 -8.66426e-006 -1.25406e-005 0.000207532 -2.59129e-005 -3.62147e-005 0.00026068 -5.27681e-005 -6.52829e-005 
0.000297755 -6.20968e-005 -6.72547e-005 0.000335624 -4.83141e-005 -4.56785e-005 0.000356355 -8.11351e-006 -7.31647e-006 
0.000335856 4.84712e-005 4.53192e-005 0.000298032 6.23705e-005 6.70728e-005 0.000260919 5.30918e-005 6.52867e-005 
0.000207649 2.6239e-005 3.63972e-005 0.000200911 8.99412e-006 1.27612e-005 0.000158048 -9.15164e-006 -1.39994e-005 
0.000162637 -2.75103e-005 -4.05912e-005 0.000177367 -6.03092e-005 -7.81262e-005 0.000197218 -7.905e-005 -8.18269e-005 
0.000220029 -6.45897e-005 -5.08468e-005 0.000232296 -6.10461e-006 -4.1432e-006 0.000220218 6.4785e-005 5.06738e-005 
0.000197407 7.93619e-005 8.18572e-005 0.000177545 6.06406e-005 7.83461e-005 0.000162736 2.78376e-005 4.09109e-005 
0.000158083 9.48226e-006 1.43574e-005 8.40878e-005 -5.67757e-006 -1.64879e-005 8.36972e-005 -1.72222e-005 -4.80307e-005 
9.62827e-005 -4.49808e-005 -8.88557e-005 8.30278e-005 -5.94276e-005 -8.79245e-005 5.29322e-005 -4.08081e-005 -3.44345e-005 
-1.62002e-005 9.59527e-007 6.18818e-007 5.27083e-005 4.09398e-005 3.44817e-005 8.30963e-005 5.96061e-005 8.81224e-005 
9.64074e-005 4.51921e-005 8.92563e-005 8.37692e-005 1.74035e-005 4.85768e-005 8.41132e-005 5.86164e-006 1.7073e-005 
6.59346e-005 -2.03972e-006 -1.70888e-005 6.40307e-005 -6.1965e-006 -4.98163e-005 5.45471e-005 -7.33804e-006 -9.35276e-005 
2.64214e-005 -5.06777e-006 -8.6027e-005 -1.83223e-007 1.21821e-006 6.69628e-006 1.07775e-005 2.04612e-007 4.41097e-007 
-1.4522e-007 -1.14711e-006 -6.71938e-006 2.65594e-005 5.07404e-006 8.62936e-005 5.46728e-005 7.36694e-006 9.40133e-005 
6.40992e-005 6.25528e-006 5.04162e-005 6.59587e-005 2.09964e-006 1.77277e-005 8.40848e-005 5.66985e-006 -1.64877e-005 
8.3693e-005 1.72128e-005 -4.80303e-005 9.62718e-005 4.49743e-005 -8.88526e-005 8.29955e-005 5.94464e-005 -8.79081e-005 
5.30091e-005 4.09311e-005 -3.44195e-005 -1.52737e-005 -9.79897e-007 7.11945e-007 5.28174e-005 -4.10004e-005 3.44968e-005 
8.31181e-005 -5.96225e-005 8.81222e-005 9.64116e-005 -4.51976e-005 8.92574e-005 8.3768e-005 -1.74071e-005 4.85771e-005 
8.41111e-005 -5.86702e-006 1.70732e-005 0.000158043 9.1456e-006 -1.39991e-005 0.00016263 2.75027e-005 -4.05908e-005 
0.000177359 6.03036e-005 -7.81243e-005 0.000197225 7.90569e-005 -8.18248e-005 0.000220033 6.45925e-005 -5.08493e-005 
0.000232312 6.12558e-006 -4.12178e-006 0.000220249 -6.4771e-005 5.0688e-005 0.000197417 -7.93714e-005 8.18594e-005 
0.000177546 -6.06416e-005 7.83471e-005 0.000162733 -2.78393e-005 4.09113e-005 0.000158079 -9.48599e-006 1.43576e-005 
0.000200866 8.65916e-006 -1.25404e-005 0.000207527 2.59062e-005 -3.62143e-005 0.000260673 5.27617e-005 -6.52822e-005 
0.00029775 6.20937e-005 -6.72537e-005 0.00033562 4.8314e-005 -4.56774e-005 0.000356358 8.12335e-006 -7.31158e-006 
0.000335859 -4.84647e-005 4.53223e-005 0.000298033 -6.23669e-005 6.70748e-005 0.000260918 -5.30899e-005 6.52874e-005 
0.000207646 -2.62399e-005 3.63975e-005 0.000200907 -8.99709e-006 1.27614e-005 0.000267015 4.49593e-006 -1.02864e-005 
0.000275848 1.33532e-005 -2.94547e-005 0.000316039 2.67147e-005 -5.31631e-005 0.000342823 2.88848e-005 -5.39153e-005 
0.000390797 1.88003e-005 -3.13717e-005 0.000402994 6.82814e-006 -1.12613e-005 0.000390983 -1.88722e-005 3.08634e-005 
0.000343112 -2.90277e-005 5.36009e-005 0.000316312 -2.68804e-005 5.29585e-005 0.00027599 -1.35398e-005 2.94171e-005 
0.000267064 -4.68562e-006 1.0286e-005 0.000281934 1.5467e-006 -9.78065e-006 0.000291108 4.58806e-006 -2.79401e-005 
0.000332395 9.09233e-006 -5.02617e-005 0.000359483 9.76195e-006 -5.08761e-005 0.000406998 6.25897e-006 -2.95263e-005 
0.000418849 2.26294e-006 -1.06151e-005 0.00040718 -6.28373e-006 2.89759e-005 0.000359775 -9.81135e-006 5.05136e-005 
0.000332673 -9.15049e-006 5.00071e-005 0.000291255 -4.6547e-006 2.78512e-005 0.000281984 -1.61467e-006 9.72892e-006 
0.000904134 -4.27909e-006 -1.49411e-005 0.000920661 -1.27872e-005 -4.2425e-005 0.000997653 -2.57004e-005 -7.75937e-005 
0.00105025 -2.77948e-005 -7.94876e-005 0.00114617 -1.80042e-005 -4.73011e-005 0.00117081 -6.52988e-006 -1.74693e-005 
0.00114674 1.80647e-005 4.53333e-005 0.00105112 2.796e-005 7.81058e-005 0.000998455 2.59039e-005 7.65172e-005 
0.000921058 1.30257e-005 4.17715e-005 0.000904269 4.522e-006 1.43748e-005 0.000866198 -1.24796e-005 -1.61256e-005 
0.00088161 -3.7364e-005 -4.60809e-005 0.000955061 -7.58778e-005 -8.50212e-005 0.00100672 -8.267e-005 -8.75109e-005 
0.00110422 -5.4367e-005 -5.24164e-005 0.00112999 -1.98067e-005 -1.92785e-005 0.0011048 5.45418e-005 5.05903e-005 
0.00100756 8.31575e-005 8.63131e-005 0.000955817 7.64737e-005 8.41373e-005 0.000881972 3.80552e-005 4.56141e-005 
0.000866321 1.31825e-005 1.57417e-005 0.000696053 -2.4451e-005 -2.15824e-005 0.000704388 -7.38205e-005 -6.29811e-005 
0.000731405 -0.000137118 -0.000110269 0.000794427 -0.000163161 -0.00011721 0.00086698 -0.000127659 -8.18341e-005 
0.000909485 -2.14986e-005 -1.35284e-005 0.000867605 0.000128065 8.07347e-005 0.000795101 0.000164017 0.000116681 
0.000731897 0.000138213 0.000110224 0.000704573 7.51127e-005 6.33596e-005 0.000696112 2.57544e-005 2.20183e-005 
0.00058429 -2.60946e-005 -2.52699e-005 0.000585894 -7.92431e-005 -7.44435e-005 0.000526146 -0.000159644 -0.000143324 
0.000512219 -0.000201217 -0.000153055 0.000547457 -0.000164228 -9.82539e-005 0.000569294 -1.5432e-005 -8.19961e-006 
0.00054793 0.000164692 9.78585e-005 0.000512564 0.000202146 0.000153347 0.000526336 0.000160818 0.000144124 
0.000585945 8.05771e-005 7.53812e-005 0.000584302 2.74349e-005 2.62432e-005 0.000388315 -1.64641e-005 -3.18681e-005 
0.000373633 -5.05325e-005 -9.49979e-005 0.000321014 -0.000121157 -0.000173243 0.000231171 -0.000154936 -0.000175872 
0.000136683 -0.000106187 -7.17224e-005 -3.8774e-005 2.35441e-006 1.35568e-006 0.000136131 0.000106383 7.19526e-005 
0.000231214 0.000155475 0.000176788 0.00032093 0.000121953 0.000174793 0.000373443 5.13218e-005 9.69159e-005 
0.000388242 1.72546e-005 3.37768e-005 0.000339644 -5.93276e-006 -3.35233e-005 0.000319959 -1.82558e-005 -0.000100154 
0.000213182 -1.99566e-005 -0.000187331 8.67141e-005 -1.34887e-005 -0.000177402 -5.16382e-007 2.12714e-006 1.44131e-005 
2.86802e-005 4.95935e-007 9.82832e-007 -4.71681e-007 -2.11835e-006 -1.44782e-005 8.6751e-005 1.35288e-005 0.000178498 
0.000212996 2.00766e-005 0.000189231 0.000319711 1.8533e-005 0.000102314 0.000339549 6.2105e-006 3.56623e-005 
0.000388314 1.64599e-005 -3.18679e-005 0.000373631 5.05274e-005 -9.49976e-005 0.00032101 0.000121152 -0.000173242 
0.000231163 0.000154936 -0.000175869 0.000136698 0.000106212 -7.1719e-005 -3.85673e-005 -2.36391e-006 1.38709e-006 
0.000136158 -0.000106399 7.1956e-005 0.00023122 -0.00015548 0.000176789 0.00032093 -0.000121955 0.000174794 
0.000373443 -5.13237e-005 9.69161e-005 0.00038824 -1.72576e-005 3.3777e-005 0.000584288 2.60912e-005 -2.52697e-005 
0.000585891 7.92388e-005 -7.44431e-005 0.000526142 0.00015964 -0.000143323 0.000512219 0.000201217 -0.000153054 
0.000547455 0.000164228 -9.82519e-005 0.000569296 1.54358e-005 -8.1964e-006 0.000547937 -0.00016469 9.78616e-005 
0.000512566 -0.000202148 0.000153349 0.000526336 -0.000160818 0.000144124 0.000585944 -8.05783e-005 7.53815e-005 
0.0005843 -2.74371e-005 2.62435e-005 0.000696051 2.44481e-005 -2.15821e-005 0.000704385 7.38168e-005 -6.29808e-005 
0.000731402 0.000137114 -0.000110269 0.000794423 0.000163158 -0.000117209 0.000866977 0.000127657 -8.18329e-005 
0.000909484 2.15001e-005 -1.35265e-005 0.000867605 -0.000128063 8.07363e-005 0.000795101 -0.000164016 0.000116682 
0.000731896 -0.000138212 0.000110225 0.000704571 -7.51135e-005 6.33599e-005 0.00069611 -2.57563e-005 2.20186e-005 
0.000866197 1.24773e-005 -1.61254e-005 0.000881609 3.73611e-005 -4.60807e-005 0.000955059 7.58745e-005 -8.50209e-005 
0.00100672 8.26671e-005 -8.75105e-005 0.00110422 5.4366e-005 -5.24157e-005 0.00112998 1.98069e-005 -1.92778e-005 
0.0011048 -5.45402e-005 5.0591e-005 0.00100756 -8.31559e-005 8.63136e-005 0.000955816 -7.64726e-005 8.41376e-005 
0.000881971 -3.80556e-005 4.56143e-005 0.000866319 -1.31838e-005 1.57419e-005 0.000904134 4.27697e-006 -1.49411e-005 
0.000920661 1.27844e-005 -4.24249e-005 0.000997652 2.56972e-005 -7.75936e-005 0.00105025 2.77921e-005 -7.94875e-005 
0.00114617 1.80032e-005 -4.73008e-005 0.00117081 6.52995e-006 -1.74691e-005 0.00114674 -1.80632e-005 4.53335e-005 
0.00105112 -2.79584e-005 7.81059e-005 0.000998455 -2.59027e-005 7.65173e-005 0.000921058 -1.3026e-005 4.17715e-005 
0.000904269 -4.52323e-006 1.43748e-005 0.00214007 -7.11642e-006 -4.60904e-006 0.00215871 -2.14787e-005 -1.16428e-005 
0.00224977 -4.46848e-005 -2.19862e-005 0.00231549 -4.93712e-005 -2.35079e-005 0.00244201 -3.32414e-005 -1.56724e-005 
0.00247592 -1.23493e-005 -6.83951e-006 0.00244336 3.28931e-005 1.22865e-005 0.00231739 4.95085e-005 2.08533e-005 
0.00225143 4.49869e-005 1.96506e-005 0.00215946 2.19158e-005 9.6734e-006 0.00214033 7.56784e-006 2.70293e-006 
0.00208087 -2.09154e-005 -5.15825e-006 0.00209686 -6.33082e-005 -1.35301e-005 0.00217889 -0.000133645 -2.6581e-005 
0.0022417 -0.000149185 -2.90127e-005 0.00237062 -0.000102493 -1.98795e-005 0.00240691 -3.82707e-005 -8.44421e-006 
0.00237202 0.000101491 1.65435e-005 0.00224349 0.000149665 2.65845e-005 0.00218038 0.00013459 2.44971e-005 
0.00209748 6.46032e-005 1.17856e-005 0.00208108 2.22413e-005 3.46349e-006 0.00181009 -4.23591e-005 -7.97637e-006 
0.00180889 -0.000129941 -2.33343e-005 0.00197787 -0.000269268 -3.51743e-005 0.00203302 -0.000340187 -4.64168e-005 
0.00212843 -0.000280939 -4.01209e-005 0.00219671 -5.02117e-005 -8.74529e-006 0.0021301 0.00027941 3.7325e-005 
0.00203411 0.000341444 4.50051e-005 0.00197813 0.000271701 3.42583e-005 0.00180868 0.000132634 2.27249e-005 
0.00181 4.50138e-005 7.306e-006 0.00162754 -4.61423e-005 -1.01498e-005 0.00160957 -0.000142868 -3.10299e-005 
0.00157189 -0.000334217 -6.30871e-005 0.00140397 -0.000471897 -0.00011089 0.00140776 -0.00041101 -9.5788e-005 
0.001435 -4.07928e-005 -1.06013e-005 0.00140825 0.000410812 9.50176e-005 0.00140219 0.000474832 0.000112738 
0.00156963 0.00033768 6.42828e-005 0.00160859 0.000145847 3.12913e-005 0.0016272 4.90095e-005 1.02232e-005 
0.00129833 -3.01369e-005 -1.4604e-005 0.00123831 -9.49239e-005 -4.71636e-005 0.00113047 -0.000269442 -9.82178e-005 
0.00071415 -0.000397447 -0.000179632 0.000373701 -0.000290133 -0.00010856 -9.95984e-005 5.92837e-006 2.3983e-006 
0.000370448 0.000290408 0.000111764 0.000708412 0.000400148 0.000186982 0.00112468 0.000272472 0.000102354 
0.00123553 9.69133e-005 4.92388e-005 0.0012974 3.1978e-005 1.61287e-005 0.00121472 -1.09492e-005 -1.58409e-005 
0.00114139 -3.46375e-005 -5.17266e-005 0.000883182 -4.57728e-005 -0.000119464 0.000327641 -3.62907e-005 -0.000211306 
1.73486e-007 6.19703e-006 2.44204e-005 6.79019e-005 1.11005e-006 3.81718e-006 -6.0786e-008 -6.21973e-006 -2.56563e-005 
0.00032094 3.65239e-005 0.000221835 0.000875283 4.62987e-005 0.00012552 0.00113808 3.53624e-005 5.43167e-005 
0.00121362 1.16139e-005 1.77569e-005 0.00129833 3.01348e-005 -1.46039e-005 0.00123831 9.49215e-005 -4.71634e-005 
0.00113047 0.00026944 -9.82173e-005 0.000714147 0.000397447 -0.00017963 0.000373705 0.000290139 -0.000108558 
-9.95489e-005 -5.93042e-006 2.41691e-006 0.000370455 -0.000290412 0.000111766 0.000708414 -0.00040015 0.000186983 
0.00112468 -0.000272473 0.000102354 0.00123553 -9.69145e-005 4.9239e-005 0.0012974 -3.19796e-005 1.61288e-005 
0.00162754 4.61406e-005 -1.01497e-005 0.00160957 0.000142866 -3.10297e-005 0.00157189 0.000334215 -6.30866e-005 
0.00140397 0.000471896 -0.00011089 0.00140776 0.00041101 -9.57873e-005 0.001435 4.07936e-005 -1.05989e-005 
0.00140825 -0.000410812 9.50196e-005 0.00140219 -0.000474833 0.000112738 0.00156963 -0.000337681 6.42832e-005 
0.00160859 -0.000145847 3.12915e-005 0.0016272 -4.90108e-005 1.02233e-005 0.00181009 4.23576e-005 -7.97621e-006 
0.00180889 0.000129939 -2.33341e-005 0.00197786 0.000269266 -3.5174e-005 0.00203302 0.000340186 -4.64164e-005 
0.00212843 0.000280938 -4.01203e-005 0.0021967 5.02119e-005 -8.74436e-006 0.0021301 -0.000279409 3.73258e-005 
0.00203411 -0.000341443 4.50056e-005 0.00197813 -0.000271701 3.42586e-005 0.00180868 -0.000132635 2.27251e-005 
0.00181 -4.50148e-005 7.30616e-006 0.00208087 2.09142e-005 -5.15817e-006 0.00209686 6.33067e-005 -1.353e-005 
0.00217889 0.000133643 -2.65808e-005 0.0022417 0.000149184 -2.90125e-005 0.00237062 0.000102492 -1.98792e-005 
0.00240691 3.82705e-005 -8.44385e-006 0.00237202 -0.000101491 1.65438e-005 0.00224349 -0.000149665 2.65847e-005 
0.00218038 -0.00013459 2.44973e-005 0.00209748 -6.46036e-005 1.17857e-005 0.00208108 -2.22422e-005 3.46357e-006 
0.00214007 7.11524e-006 -4.60902e-006 0.00215871 2.14772e-005 -1.16428e-005 0.00224977 4.46832e-005 -2.19861e-005 
0.00231548 4.93698e-005 -2.35078e-005 0.00244201 3.32407e-005 -1.56723e-005 0.00247592 1.2349e-005 -6.83939e-006 
0.00244336 -3.28928e-005 1.22866e-005 0.00231739 -4.95081e-005 2.08534e-005 0.00225143 -4.49867e-005 1.96507e-005 
0.00215946 -2.19162e-005 9.67343e-006 0.00214033 -7.56865e-006 2.70296e-006 0.00520814 -4.77326e-006 1.85166e-005 
0.00522406 -1.43249e-005 5.59078e-005 0.00529998 -2.9095e-005 0.000105584 0.00535284 -3.16668e-005 0.000109575 
0.00545105 -2.09113e-005 6.6301e-005 0.00547682 -7.97698e-006 2.40237e-005 0.00545284 2.00069e-005 -6.5619e-005 
0.00535552 3.14035e-005 -0.000110301 0.0053024 2.90855e-005 -0.000107015 0.00522522 1.45747e-005 -5.82947e-005 
0.00520853 5.06243e-006 -2.10987e-005 0.00516685 -1.3958e-005 2.05862e-005 0.0051814 -4.19909e-005 6.21603e-005 
0.00525296 -8.62134e-005 0.000119241 0.00530469 -9.45097e-005 0.000125139 0.00540481 -6.32506e-005 7.74232e-005 
0.00543194 -2.42182e-005 2.8367e-005 0.00540675 6.05262e-005 -7.62133e-005 0.00530742 9.37716e-005 -0.000125699 
0.00525535 8.62266e-005 -0.000120622 0.0051825 4.27398e-005 -6.45925e-005 0.00516722 1.4814e-005 -2.32246e-005 
0.00498031 -2.76433e-005 3.05098e-005 0.00498618 -8.40591e-005 9.25448e-005 0.00484781 -0.000177058 0.000170053 
0.00490898 -0.000214142 0.000195852 0.00498855 -0.000169329 0.000148973 0.00503795 -3.2101e-005 2.68568e-005 
0.0049914 0.00016363 -0.000145839 0.00491179 0.000212456 -0.000195586 0.00484955 0.00017775 -0.000171709 
0.00498678 8.5695e-005 -9.52603e-005 0.00498049 2.94132e-005 -3.3455e-005 0.0048566 -2.96971e-005 3.75913e-005 
0.00485424 -9.09584e-005 0.000114618 0.00458719 -0.000210934 0.000249748 0.00459624 -0.000270755 0.00031166 
0.00464543 -0.000222377 0.000256062 0.00468339 -4.20034e-005 4.87924e-005 0.004648 0.000215611 -0.000249518 
0.00459769 0.000269554 -0.000310927 0.00458731 0.00021228 -0.000251733 0.00485431 9.28234e-005 -0.000117597 
0.0048566 3.16464e-005 -4.07873e-005 0.00463743 -1.89445e-005 5.10733e-005 0.00461525 -5.87705e-005 0.000157511 
0.00432139 -0.000163031 0.000337396 0.00424636 -0.000217163 0.000451942 0.00422602 -0.000159015 0.000368515 
0.00418836 -2.15759e-005 6.04514e-005 0.00422491 0.000155795 -0.00036201 0.00424389 0.000217145 -0.000452266 
0.00431876 0.000164479 -0.000340205 0.00461392 6.00814e-005 -0.000161132 0.00463698 2.0237e-005 -5.48081e-005 
0.00458257 -6.84335e-006 5.46315e-005 0.0045543 -2.12964e-005 0.000169018 0.00418027 -2.70753e-005 0.000386234 
0.00405542 -3.5935e-005 0.000530037 0.00400677 -1.97665e-005 0.000366939 0.00390727 -1.05683e-006 3.81676e-005 
0.00400264 1.97007e-005 -0.000368384 0.0040495 3.60311e-005 -0.000532297 0.00417567 2.73503e-005 -0.000389729 
0.00455252 2.17803e-005 -0.000172837 0.00458197 7.3138e-006 -5.85206e-005 0.00463743 1.89436e-005 5.10734e-005 
0.00461525 5.87694e-005 0.000157511 0.00432139 0.00016303 0.000337396 0.00424636 0.000217162 0.000451943 
0.00422602 0.000159014 0.000368515 0.00418836 2.15752e-005 6.04517e-005 0.00422491 -0.000155796 -0.00036201 
0.00424389 -0.000217146 -0.000452266 0.00431876 -0.00016448 -0.000340205 0.00461392 -6.00822e-005 -0.000161131 
0.00463698 -2.02378e-005 -5.4808e-005 0.0048566 2.96963e-005 3.75914e-005 0.00485424 9.09574e-005 0.000114618 
0.00458718 0.000210933 0.000249748 0.00459624 0.000270754 0.00031166 0.00464543 0.000222377 0.000256063 
0.00468339 4.20028e-005 4.87928e-005 0.004648 -0.000215611 -0.000249518 0.00459769 -0.000269554 -0.000310927 
0.00458731 -0.000212281 -0.000251733 0.00485431 -9.28241e-005 -0.000117597 0.0048566 -3.16471e-005 -4.07873e-005 
0.00498031 2.76425e-005 3.05098e-005 0.00498618 8.40583e-005 9.25449e-005 0.00484781 0.000177057 0.000170053 
0.00490898 0.000214141 0.000195853 0.00498855 0.000169328 0.000148973 0.00503795 3.21005e-005 2.68571e-005 
0.0049914 -0.00016363 -0.000145838 0.00491179 -0.000212457 -0.000195586 0.00484955 -0.000177751 -0.000171709 
0.00498678 -8.56956e-005 -9.52602e-005 0.00498049 -2.94139e-005 -3.34549e-005 0.00516685 1.39573e-005 2.05862e-005 
0.0051814 4.19901e-005 6.21604e-005 0.00525296 8.62126e-005 0.000119241 0.00530469 9.4509e-005 0.000125139 
0.00540481 6.325e-005 7.74233e-005 0.00543194 2.42177e-005 2.83672e-005 0.00540675 -6.05266e-005 -7.62131e-005 
0.00530741 -9.37719e-005 -0.000125699 0.00525535 -8.6227e-005 -0.000120622 0.0051825 -4.27404e-005 -6.45925e-005 
0.00516722 -1.48147e-005 -2.32245e-005 0.00520814 4.77257e-006 1.85167e-005 0.00522406 1.43242e-005 5.59078e-005 
0.00529998 2.90943e-005 0.000105584 0.00535284 3.16661e-005 0.000109575 0.00545105 2.09107e-005 6.6301e-005 
0.00547682 7.97647e-006 2.40237e-005 0.00545284 -2.00073e-005 -6.56189e-005 0.00535552 -3.14039e-005 -0.000110301 
0.0053024 -2.90858e-005 -0.000107015 0.00522522 -1.45752e-005 -5.82947e-005 0.00520853 -5.06304e-006 -2.10987e-005 
0.00855553 -1.33936e-006 1.50341e-005 0.0085656 -3.96783e-006 4.44241e-005 0.00861077 -7.48057e-006 8.12179e-005 
0.00863991 -7.76654e-006 8.27177e-005 0.00868994 -4.71244e-006 4.86338e-005 0.0087023 -1.74012e-006 1.78042e-005 
0.00869081 4.56176e-006 -4.71237e-005 0.00864134 7.72751e-006 -8.23224e-005 0.00861215 7.49663e-006 -8.14468e-005 
0.00856634 4.05545e-006 -4.55855e-005 0.00855579 1.44086e-006 -1.64001e-005 0.00854157 -3.85716e-006 1.60401e-005 
0.00855166 -1.14363e-005 4.74186e-005 0.00859714 -2.16029e-005 8.70577e-005 0.00862669 -2.24529e-005 8.89069e-005 
0.0086778 -1.36415e-005 5.25164e-005 0.0086905 -5.0321e-006 1.92496e-005 0.00867869 1.32258e-005 -5.08831e-005 
0.00862813 2.23557e-005 -8.8484e-005 0.00859852 2.16613e-005 -8.72998e-005 0.00855238 1.16951e-005 -4.8638e-005 
0.00854183 4.15458e-006 -1.74713e-005 0.00848067 -7.14521e-006 2.05543e-005 0.00849065 -2.12513e-005 6.09102e-005 
0.00853685 -4.04591e-005 0.000113666 0.00856786 -4.22231e-005 0.000117273 0.00862316 -2.57505e-005 7.04107e-005 
0.00863718 -9.44226e-006 2.58657e-005 0.00862408 2.51535e-005 -6.83667e-005 0.00856929 4.21722e-005 -0.000116832 