# vtk DataFile Version 3.0
vtk output
ASCII
DATASET RECTILINEAR_GRID
FIELD FieldData 3
MeshName 1 1 string
amr_mesh

CYCLE 1 1 int
60000 
TIME 1 1 double
6 
DIMENSIONS 11 11 30
X_COORDINATES 11 double
-0.0625 -0.05 -0.0375 -0.025 -0.0125 0 0.0125 0.025 0.0375 
0.05 0.0625 
Y_COORDINATES 11 double
-0.0625 -0.05 -0.0375 -0.025 -0.0125 0 0.0125 0.025 0.0375 
0.05 0.0625 
Z_COORDINATES 30 double
-0.5 -0.465517 -0.431034 -0.396552 -0.362069 -0.327586 -0.293103 -0.258621 -0.224138 
-0.189655 -0.155172 -0.12069 -0.0862069 -0.0517241 -0.0172414 0.0172414 0.0517241 0.0862069 
0.12069 0.155172 0.189655 0.224138 0.258621 0.293103 0.327586 0.362069 0.396552 
0.431034 0.465517 0.5 
POINT_DATA 3630
VECTORS U double
5.03469e-006 -9.06179e-008 -1.64324e-007 6.0318e-006 -2.69995e-007 -4.69204e-007 1.0455e-005 -5.56007e-007 -8.37132e-007 
1.32999e-005 -5.98522e-007 -8.48362e-007 1.81832e-005 -3.83803e-007 -4.94021e-007 1.93798e-005 -1.37023e-007 -1.75877e-007 
1.81918e-005 3.90644e-007 4.90539e-007 1.33134e-005 6.05275e-007 8.46172e-007 1.04677e-005 5.62294e-007 8.35686e-007 
6.03843e-006 2.75217e-007 4.68865e-007 5.03697e-006 9.55476e-008 1.64231e-007 4.33577e-006 -2.64045e-007 -1.77356e-007 
5.33695e-006 -7.77179e-007 -5.06798e-007 9.76872e-006 -1.62474e-006 -8.89229e-007 1.26331e-005 -1.76099e-006 -9.03516e-007 
1.7617e-005 -1.15023e-006 -5.30577e-007 1.88559e-005 -4.16908e-007 -1.89089e-007 1.76257e-005 1.15888e-006 5.27482e-007 
1.26459e-005 1.77185e-006 9.01723e-007 9.7805e-006 1.63537e-006 8.88136e-007 5.34296e-006 7.86707e-007 5.06774e-007 
4.33785e-006 2.73259e-007 1.77576e-007 1.20506e-006 -5.24829e-007 -2.31876e-007 2.25163e-006 -1.55238e-006 -6.66261e-007 
3.00413e-006 -1.61856e-006 -2.89634e-007 5.37892e-006 -1.91799e-006 -3.00768e-007 7.65568e-006 -1.51793e-006 -2.14e-007 
8.86018e-006 -2.55959e-007 -3.32835e-008 7.66009e-006 1.5279e-006 2.14084e-007 5.38187e-006 1.93028e-006 3.01266e-007 
3.0052e-006 1.62902e-006 2.89919e-007 2.25579e-006 1.56585e-006 6.67437e-007 1.20656e-006 5.38097e-007 2.33378e-007 
-8.78444e-007 -5.55059e-007 -2.62595e-007 1.16492e-007 -1.64647e-006 -7.56316e-007 1.1883e-006 -1.83094e-006 -3.56623e-007 
1.71187e-006 -1.23214e-006 -1.0606e-007 2.89552e-006 -1.08364e-006 -7.65582e-008 3.573e-006 -1.12679e-007 1.40657e-009 
2.89853e-006 1.09109e-006 8.11134e-008 1.6964e-006 1.23716e-006 1.07381e-007 1.1856e-006 1.83766e-006 3.57274e-007 
1.19875e-007 1.65891e-006 7.58301e-007 -8.77162e-007 5.67419e-007 2.64906e-007 -4.48425e-006 -3.41719e-007 -3.15081e-007 
-3.64245e-006 -1.02052e-006 -9.12143e-007 -6.08245e-007 -1.35515e-006 -4.2059e-007 5.01487e-007 -9.33771e-007 -1.2031e-007 
9.14074e-007 -8.08e-007 -5.82513e-008 -3.24625e-007 -1.88753e-007 5.67847e-009 9.5336e-007 7.42403e-007 9.8176e-008 
4.83166e-007 9.07566e-007 1.21625e-007 -6.11365e-007 1.35152e-006 4.22265e-007 -3.63882e-006 1.02564e-006 9.15539e-007 
-4.48287e-006 3.4739e-007 3.18748e-007 -5.36869e-006 -1.22513e-007 -3.27965e-007 -4.57825e-006 -3.65978e-007 -9.50531e-007 
-1.5411e-006 -2.23839e-007 -4.53222e-007 -1.3725e-007 -1.08516e-007 -1.30471e-007 -1.05938e-007 -3.42848e-008 -2.12001e-008 
2.90953e-007 -5.79923e-008 -6.58838e-009 2.77517e-007 -1.12864e-007 -1.10076e-008 -1.25365e-007 5.82929e-008 1.29201e-007 
-1.53526e-006 2.1382e-007 4.5381e-007 -4.57342e-006 3.66654e-007 9.54173e-007 -5.36701e-006 1.2368e-007 3.31935e-007 
-4.48442e-006 3.41515e-007 -3.15116e-007 -3.64341e-006 1.02101e-006 -9.12253e-007 -6.15775e-007 1.34878e-006 -4.22026e-007 
4.76134e-007 9.04139e-007 -1.26957e-007 9.38608e-007 7.90518e-007 -6.76547e-008 -2.85354e-007 1.61896e-007 -3.03671e-008 
9.76115e-007 -8.07034e-007 8.88832e-008 4.97245e-007 -9.46586e-007 1.23699e-007 -6.06039e-007 -1.35995e-006 4.21919e-007 
-3.63776e-006 -1.02814e-006 9.15591e-007 -4.48249e-006 -3.48623e-007 3.18752e-007 -8.78245e-007 5.55998e-007 -2.6263e-007 
1.15936e-007 1.64845e-006 -7.56371e-007 1.18335e-006 1.83367e-006 -3.57271e-007 1.70577e-006 1.24348e-006 -1.07263e-007 
2.88852e-006 1.08068e-006 -7.51864e-008 3.56079e-006 1.15915e-007 -1.16872e-008 2.9148e-006 -1.0825e-006 7.38573e-008 
1.72103e-006 -1.24426e-006 1.06154e-007 1.19292e-006 -1.84051e-006 3.57008e-007 1.21946e-007 -1.65977e-006 7.58336e-007 
-8.76185e-007 -5.67405e-007 2.64894e-007 1.20546e-006 5.26359e-007 -2.31917e-007 2.25149e-006 1.55484e-006 -6.66313e-007 
3.00146e-006 1.62403e-006 -2.89892e-007 5.37748e-006 1.92497e-006 -3.01129e-007 7.65264e-006 1.52368e-006 -2.14144e-007 
8.86026e-006 2.64758e-007 -3.55725e-008 7.66517e-006 -1.52001e-006 2.12931e-007 5.38884e-006 -1.92565e-006 3.00529e-007 
3.011e-006 -1.62671e-006 2.89663e-007 2.25786e-006 -1.56569e-006 6.67457e-007 1.20766e-006 -5.37334e-007 2.33351e-007 
4.33606e-006 2.66486e-007 -1.77379e-007 5.33696e-006 7.80285e-007 -5.06827e-007 9.76902e-006 1.62961e-006 -8.89198e-007 
1.26337e-005 1.76631e-006 -9.03522e-007 1.76179e-005 1.15593e-006 -5.30618e-007 1.8857e-005 4.22966e-007 -1.89253e-007 
1.76278e-005 -1.1533e-006 5.27293e-007 1.26482e-005 -1.76802e-006 9.01629e-007 9.78251e-006 -1.63241e-006 8.88094e-007 
5.34416e-006 -7.8481e-007 5.06744e-007 4.33853e-006 -2.71238e-007 1.77551e-007 5.03479e-006 9.32719e-008 -1.64329e-007 
6.03182e-006 2.73242e-007 -4.69215e-007 1.04551e-005 5.60694e-007 -8.37151e-007 1.33001e-005 6.03715e-007 -8.48394e-007 
1.81835e-005 3.8965e-007 -4.94087e-007 1.93803e-005 1.43128e-007 -1.75975e-007 1.81925e-005 -3.85053e-007 4.9044e-007 
1.33141e-005 -6.01262e-007 8.4612e-007 1.04684e-005 -5.59078e-007 8.35654e-007 6.03883e-006 -2.72925e-007 4.68855e-007 
5.0372e-006 -9.32314e-008 1.64226e-007 9.27891e-005 -6.19577e-007 -3.89092e-006 9.77677e-005 -1.83072e-006 -1.11192e-005 
0.000119849 -3.61738e-006 -1.99506e-005 0.00013409 -3.87716e-006 -2.01638e-005 0.000158631 -2.4798e-006 -1.16523e-005 
0.000164662 -8.93888e-007 -4.14596e-006 0.000158679 2.49465e-006 1.15509e-005 0.000134168 3.89694e-006 2.00981e-005 
0.000119923 3.63812e-006 1.99057e-005 9.78072e-005 1.85157e-006 1.11071e-005 9.28028e-005 6.40271e-007 3.88631e-006 
8.68154e-005 -1.80312e-006 -4.07673e-006 9.16745e-005 -5.32608e-006 -1.16651e-005 0.000113386 -1.06174e-005 -2.09905e-005 
0.000127539 -1.14589e-005 -2.12578e-005 0.000152306 -7.44406e-006 -1.23258e-005 0.000158483 -2.70169e-006 -4.38478e-006 
0.000152356 7.47064e-006 1.22323e-005 0.000127617 1.15025e-005 2.12007e-005 0.000113459 1.06645e-005 2.09544e-005 
9.17128e-005 5.37476e-006 1.1662e-005 8.68287e-005 1.85182e-006 4.08107e-006 6.0404e-005 -3.45198e-006 -4.90317e-006 
6.44892e-005 -1.02639e-005 -1.41023e-005 7.81116e-005 -1.85122e-005 -2.2267e-005 9.70677e-005 -2.16991e-005 -2.29303e-005 
0.000115224 -1.68704e-005 -1.55893e-005 0.00012472 -2.83242e-006 -2.46242e-006 0.000115283 1.69149e-005 1.55362e-005 
9.71346e-005 2.17702e-005 2.29037e-005 7.81699e-005 1.85882e-005 2.22688e-005 6.45219e-005 1.03457e-005 1.41379e-005 
6.04154e-005 3.53363e-006 4.94632e-006 4.33707e-005 -3.62931e-006 -5.43707e-006 4.67039e-005 -1.08435e-005 -1.56812e-005 
4.92302e-005 -2.09153e-005 -2.6329e-005 6.33093e-005 -2.72763e-005 -2.81895e-005 7.59606e-005 -2.23762e-005 -1.76525e-005 
8.21797e-005 -2.11746e-006 -1.41496e-006 7.59971e-005 2.24402e-005 1.76353e-005 6.33563e-005 2.73593e-005 2.81983e-005 
4.92732e-005 2.09917e-005 2.63637e-005 4.67328e-005 1.09249e-005 1.57411e-005 4.3381e-005 3.71054e-006 5.50439e-006 
1.40884e-005 -2.23039e-006 -6.34506e-006 1.56153e-005 -6.7237e-006 -1.83585e-005 2.14187e-005 -1.54034e-005 -2.97099e-005 
2.42274e-005 -2.00472e-005 -3.00896e-005 1.77795e-005 -1.37666e-005 -1.19881e-005 -6.40602e-006 3.15978e-007 2.66507e-007 
1.76763e-005 1.38474e-005 1.20197e-005 2.42146e-005 2.00984e-005 3.013e-005 2.14505e-005 1.5451e-005 2.97734e-005 
1.56402e-005 6.77102e-006 1.84585e-005 1.40974e-005 2.27803e-006 6.45245e-006 6.92979e-006 -7.95513e-007 -6.56352e-006 
7.91018e-006 -2.40673e-006 -1.89987e-005 7.25402e-006 -2.47748e-006 -3.1165e-005 5.332e-006 -1.66564e-006 -2.93101e-005 
-2.93826e-008 1.02216e-006 2.24671e-006 3.39427e-006 4.58253e-008 7.36365e-008 1.1692e-008 -8.70316e-007 -2.24983e-006 
5.42072e-006 1.66666e-006 2.93606e-005 7.30357e-006 2.49413e-006 3.12411e-005 7.93634e-006 2.4271e-006 1.91083e-005 
6.93903e-006 8.15754e-007 6.68047e-006 1.40912e-005 2.23974e-006 -6.3449e-006 1.56176e-005 6.741e-006 -1.83584e-005 
2.14151e-005 1.54313e-005 -2.97111e-005 2.41883e-005 2.01049e-005 -3.00929e-005 1.78992e-005 1.39691e-005 -1.19932e-005 
-4.95833e-006 -3.90885e-007 2.09433e-007 1.78478e-005 -1.39318e-005 1.20145e-005 2.4244e-005 -2.01329e-005 3.01293e-005 
2.14603e-005 -1.54677e-005 2.97737e-005 1.56438e-005 -6.77636e-006 1.84588e-005 1.41005e-005 -2.27631e-006 6.45265e-006 
4.33765e-005 3.63775e-006 -5.43676e-006 4.67103e-005 1.08582e-005 -1.5681e-005 4.92397e-005 2.09409e-005 -2.63292e-005 
6.33466e-005 2.73172e-005 -2.81903e-005 7.59903e-005 2.2385e-005 -1.76531e-005 8.22056e-005 2.14242e-006 -1.41816e-006 
7.606e-005 -2.24203e-005 1.7632e-005 6.33849e-005 -2.7384e-005 2.81975e-005 4.92866e-005 -2.1003e-005 2.6364e-005 
4.67404e-005 -1.09278e-005 1.57414e-005 4.3387e-005 -3.70797e-006 5.50473e-006 6.04099e-005 3.45983e-006 -4.90286e-006 
6.44961e-005 1.02768e-005 -1.4102e-005 7.8123e-005 1.85307e-005 -2.22668e-005 9.70864e-005 2.17188e-005 -2.293e-005 
0.000115246 1.68824e-005 -1.55887e-005 0.000124747 2.84829e-006 -2.46317e-006 0.000115305 -1.69088e-005 1.55355e-005 
9.71531e-005 -2.17729e-005 2.29035e-005 7.81821e-005 -1.85931e-005 2.2269e-005 6.45295e-005 -1.03468e-005 1.41382e-005 
6.04216e-005 -3.5305e-006 4.94665e-006 8.68188e-005 1.81006e-006 -4.07655e-006 9.16785e-005 5.33595e-006 -1.1665e-005 
0.000113393 1.06315e-005 -2.09903e-005 0.000127548 1.14732e-005 -2.12576e-005 0.000152317 7.45474e-006 -1.23256e-005 
0.000158495 2.71107e-006 -4.3847e-006 0.000152367 -7.46583e-006 1.22324e-005 0.000127625 -1.15019e-005 2.12008e-005 
0.000113466 -1.06648e-005 2.09545e-005 9.17171e-005 -5.37299e-006 1.16621e-005 8.68322e-005 -1.84766e-006 4.08124e-006 
9.27903e-005 6.26305e-007 -3.89086e-006 9.7769e-005 1.83994e-006 -1.11191e-005 0.000119851 3.6301e-006 -1.99506e-005 
0.000134093 3.89027e-006 -2.01638e-005 0.000158635 2.49063e-006 -1.16522e-005 0.000164666 9.0326e-007 -4.14592e-006 
0.000158683 -2.4895e-006 1.15509e-005 0.000134171 -3.89536e-006 2.00981e-005 0.000119926 -3.63727e-006 1.99058e-005 
9.78086e-005 -1.84914e-006 1.11071e-005 9.2804e-005 -6.35874e-007 3.88638e-006 0.000282877 -1.5589e-006 -9.79182e-006 
0.000292085 -4.60771e-006 -2.79719e-005 0.000333477 -9.12262e-006 -5.03015e-005 0.000360626 -9.79308e-006 -5.09007e-005 
0.000408233 -6.27654e-006 -2.94876e-005 0.000420092 -2.26633e-006 -1.05378e-005 0.000408352 6.30461e-006 2.91097e-005 
0.000360819 9.83508e-006 5.06469e-005 0.000333662 9.16935e-006 5.01197e-005 0.000292183 4.65875e-006 2.79011e-005 
0.000282911 1.61053e-006 9.74609e-006 0.000267925 -4.53458e-006 -1.03063e-005 0.00027679 -1.34147e-005 -2.94974e-005 
0.000317082 -2.68106e-005 -5.32175e-005 0.000343925 -2.89854e-005 -5.39549e-005 0.000391995 -1.88636e-005 -3.13445e-005 
0.000404203 -6.84842e-006 -1.11918e-005 0.000392116 1.89278e-005 3.09964e-005 0.000344117 2.9093e-005 5.37346e-005 
0.000317264 2.69321e-005 5.30704e-005 0.000276885 1.3549e-005 2.94627e-005 0.000267958 4.67091e-006 1.02967e-005 
0.000201628 -8.73167e-006 -1.25978e-005 0.000208311 -2.60237e-005 -3.63046e-005 0.000261592 -5.29536e-005 -6.53937e-005 
0.000298746 -6.23136e-005 -6.73454e-005 0.000336705 -4.849e-005 -4.57062e-005 0.000357475 -8.13796e-006 -7.25379e-006 
0.00033686 4.86122e-005 4.54667e-005 0.000298935 6.25114e-005 6.72209e-005 0.000261758 5.31865e-005 6.53927e-005 
0.000208392 2.62599e-005 3.64255e-005 0.000201656 8.97074e-006 1.27446e-005 0.00015871 -9.21987e-006 -1.40798e-005 
0.00016331 -2.76249e-005 -4.0711e-005 0.000178071 -6.0518e-005 -7.82999e-005 0.000197949 -7.93348e-005 -8.19911e-005 
0.000220827 -6.48648e-005 -5.09297e-005 0.000233172 -6.11043e-006 -4.10061e-006 0.000220955 6.50056e-005 5.08235e-005 
0.00019809 7.95546e-005 8.20157e-005 0.0001782 6.07572e-005 7.8451e-005 0.000163381 2.78629e-005 4.0929e-005 
0.000158734 9.4604e-006 1.43241e-005 8.45823e-005 -5.71317e-006 -1.66069e-005 8.41854e-005 -1.72854e-005 -4.82002e-005 
9.67808e-005 -4.5131e-005 -8.90836e-005 8.3447e-005 -5.96533e-005 -8.81433e-005 5.32742e-005 -4.11425e-005 -3.4563e-005 
-1.63189e-005 9.45282e-007 6.28625e-007 5.31425e-005 4.12276e-005 3.46004e-005 8.35013e-005 5.97897e-005 8.82846e-005 
9.68736e-005 4.52898e-005 8.9362e-005 8.42382e-005 1.74235e-005 4.8579e-005 8.46009e-005 5.85298e-006 1.70126e-005 
6.6389e-005 -2.04641e-006 -1.72169e-005 6.44736e-005 -6.21024e-006 -4.99977e-005 5.49362e-005 -7.34889e-006 -9.37802e-005 
2.6644e-005 -5.08286e-006 -8.62555e-005 -1.67567e-007 1.23965e-006 6.71937e-006 1.0773e-005 1.9442e-007 4.3461e-007 
-1.2833e-007 -1.16841e-006 -6.73359e-006 2.67472e-005 5.09562e-006 8.64505e-005 5.50279e-005 7.38191e-006 9.41201e-005 
6.45235e-005 6.26285e-006 5.04148e-005 6.64066e-005 2.09946e-006 1.7661e-005 8.45854e-005 5.72279e-006 -1.66065e-005 
8.41883e-005 1.73024e-005 -4.81995e-005 9.67803e-005 4.51573e-005 -8.90801e-005 8.34221e-005 5.96968e-005 -8.81269e-005 
5.33574e-005 4.12753e-005 -3.45499e-005 -1.53615e-005 -9.92755e-007 7.20182e-007 5.32531e-005 -4.12857e-005 3.46136e-005 
8.35231e-005 -5.98149e-005 8.82825e-005 9.68824e-005 -4.53044e-005 8.93626e-005 8.42419e-005 -1.7428e-005 4.85793e-005 
8.46042e-005 -5.85066e-006 1.7013e-005 0.000158716 9.22861e-006 -1.40791e-005 0.000163317 2.76395e-005 -4.071e-005 
0.000178081 6.05422e-005 -7.82976e-005 0.000197977 7.93663e-005 -8.19894e-005 0.000220852 6.48737e-005 -5.09345e-005 
0.000233196 6.12476e-006 -4.08193e-006 0.000220998 -6.49927e-005 5.08372e-005 0.000198112 -7.95735e-005 8.20175e-005 
0.000178212 -6.07674e-005 7.84519e-005 0.000163388 -2.7865e-005 4.09296e-005 0.00015874 -9.45733e-006 1.43248e-005 
0.000201634 8.73986e-006 -1.25971e-005 0.000208318 2.60367e-005 -3.63037e-005 0.000261603 5.29717e-005 -6.53927e-005 
0.000298764 6.23322e-005 -6.73447e-005 0.000336725 4.85014e-005 -4.5706e-005 0.000357499 8.14996e-006 -7.24997e-006 
0.00033688 -4.86088e-005 4.54697e-005 0.000298952 -6.25147e-005 6.7223e-005 0.000261769 -5.3191e-005 6.53938e-005 
0.0002084 -2.62605e-005 3.64262e-005 0.000201663 -8.96715e-006 1.27453e-005 0.000267928 4.54199e-006 -1.03059e-005 
0.000276794 1.3425e-005 -2.9497e-005 0.000317089 2.68248e-005 -5.3217e-005 0.000343933 2.89998e-005 -5.39544e-005 
0.000392006 1.88742e-005 -3.13439e-005 0.000404214 6.85714e-006 -1.1191e-005 0.000392127 -1.89239e-005 3.09975e-005 
0.000344125 -2.90928e-005 5.37354e-005 0.000317271 -2.69325e-005 5.30711e-005 0.000276889 -1.3547e-005 2.94631e-005 
0.000267961 -4.66634e-006 1.02971e-005 0.000282878 1.56613e-006 -9.79168e-006 0.000292086 4.61745e-006 -2.79717e-005 
0.000333479 9.13571e-006 -5.03014e-005 0.000360629 9.8064e-006 -5.09005e-005 0.000408236 6.28725e-006 -2.94874e-005 
0.000420096 2.27524e-006 -1.05375e-005 0.000408356 -6.30018e-006 2.91101e-005 0.000360822 -9.83393e-006 5.06472e-005 
0.000333665 -9.16868e-006 5.01199e-005 0.000292185 -4.65607e-006 2.79013e-005 0.000282912 -1.60573e-006 9.74622e-006 
0.000906704 -4.31974e-006 -1.48712e-005 0.00092329 -1.28434e-005 -4.23391e-005 0.00100045 -2.57813e-005 -7.74501e-005 
0.00105313 -2.78784e-005 -7.93043e-005 0.00114919 -1.80529e-005 -4.70292e-005 0.00117382 -6.54239e-006 -1.71641e-005 
0.00114957 1.81105e-005 4.5633e-005 0.00105373 2.80026e-005 7.83081e-005 0.00100099 2.59311e-005 7.66644e-005 
0.000923563 1.30177e-005 4.18474e-005 0.000906797 4.49737e-006 1.44403e-005 0.000868713 -1.26028e-005 -1.60813e-005 
0.000884177 -3.75349e-005 -4.60228e-005 0.000957776 -7.61269e-005 -8.49119e-005 0.00100953 -8.29301e-005 -8.73636e-005 
0.00110718 -5.45244e-005 -5.21723e-005 0.00113294 -1.98499e-005 -1.89916e-005 0.00110756 5.4684e-005 5.08831e-005 
0.0010101 8.32872e-005 8.65009e-005 0.000958292 7.65562e-005 8.42652e-005 0.000884427 3.80312e-005 4.56661e-005 
0.000868798 1.3108e-005 1.57827e-005 0.000698322 -2.46842e-005 -2.16533e-005 0.000706666 -7.41526e-005 -6.30492e-005 
0.000733669 -0.000137584 -0.000110318 0.000796798 -0.000163697 -0.000117219 0.000869515 -0.000128083 -8.17488e-005 
0.000912086 -2.15295e-005 -1.33136e-005 0.000869927 0.000128416 8.09935e-005 0.00079726 0.000164313 0.000116843 
0.000734015 0.000138364 0.000110273 0.000706801 7.50777e-005 6.33043e-005 0.000698365 2.56187e-005 2.19492e-005 
0.000586394 -2.63359e-005 -2.5416e-005 0.000587972 -7.95932e-005 -7.45949e-005 0.000527988 -0.000160183 -0.00014353 
0.000513949 -0.000201906 -0.000153266 0.000549308 -0.000164887 -9.83441e-005 0.000571328 -1.54137e-005 -8.06592e-006 
0.000549628 0.000165235 9.81004e-005 0.000514219 0.000202557 0.000153473 0.000528145 0.000161019 0.000144092 
0.000588019 8.055e-005 7.52554e-005 0.000586405 2.72986e-005 2.61024e-005 0.00039012 -1.66064e-005 -3.21442e-005 
0.000375342 -5.07464e-005 -9.52949e-005 0.000322414 -0.000121563 -0.000173591 0.000232222 -0.000155499 -0.000176234 
0.000137543 -0.000107036 -7.19773e-005 -3.90771e-005 2.3531e-006 1.37502e-006 0.00013727 0.000107145 7.21346e-005 
0.000232304 0.000155898 0.000176881 0.000322388 0.000122139 0.000174693 0.000375223 5.13185e-005 9.66685e-005 
0.000390072 1.71794e-005 3.35123e-005 0.000341372 -5.98029e-006 -3.38311e-005 0.000321571 -1.83282e-005 -0.000100487 
0.000214333 -2.00172e-005 -0.000187746 8.72883e-005 -1.35443e-005 -0.0001778 -5.11644e-007 2.18111e-006 1.4456e-005 
2.8659e-005 4.97592e-007 9.63497e-007 -4.73241e-007 -2.16998e-006 -1.44979e-005 8.73368e-005 1.35779e-005 0.000178586 
0.000214229 2.01109e-005 0.000189103 0.000321411 1.85336e-005 0.000102037 0.00034131 6.18589e-006 3.53676e-005 
0.000390121 1.66114e-005 -3.21439e-005 0.000375343 5.07545e-005 -9.52945e-005 0.000322416 0.000121575 -0.00017359 
0.000232217 0.000155513 -0.000176232 0.000137566 0.000107074 -7.19747e-005 -3.8795e-005 -2.37317e-006 1.40462e-006 
0.000137305 -0.000107164 7.21372e-005 0.000232312 -0.000155908 0.000176881 0.000322392 -0.000122145 0.000174694 
0.000375225 -5.13195e-005 9.66687e-005 0.000390074 -1.71775e-005 3.35126e-005 0.000586397 2.63406e-005 -2.54155e-005 
0.000587976 7.96004e-005 -7.45943e-005 0.000527994 0.000160194 -0.000143529 0.00051396 0.00020192 -0.000153265 
0.000549316 0.000164891 -9.83432e-005 0.000571335 1.54178e-005 -8.06407e-006 0.000549644 -0.000165233 9.81026e-005 
0.000514228 -0.000202565 0.000153474 0.000528151 -0.000161023 0.000144092 0.000588022 -8.05502e-005 7.52559e-005 
0.000586408 -2.72965e-005 2.61029e-005 0.000698325 2.46887e-005 -2.16527e-005 0.00070667 7.41592e-005 -6.30486e-005 
0.000733674 0.000137593 -0.000110317 0.000796806 0.000163706 -0.000117218 0.000869523 0.000128089 -8.17482e-005 
0.000912095 2.15337e-005 -1.33125e-005 0.000869935 -0.000128416 8.09948e-005 0.000797268 -0.000164315 0.000116844 
0.000734021 -0.000138365 0.000110274 0.000706804 -7.50773e-005 6.33049e-005 0.000698368 -2.56163e-005 2.19497e-005 
0.000868715 1.26071e-005 -1.6081e-005 0.000884179 3.75406e-005 -4.60225e-005 0.000957779 7.61342e-005 -8.49115e-005 
0.00100953 8.29374e-005 -8.73633e-005 0.00110719 5.45298e-005 -5.21718e-005 0.00113295 1.98541e-005 -1.8991e-005 
0.00110757 -5.46822e-005 5.08837e-005 0.0010101 -8.3287e-005 8.65015e-005 0.000958295 -7.65561e-005 8.42657e-005 
0.000884429 -3.80297e-005 4.56664e-005 0.0008688 -1.31051e-005 1.5783e-005 0.000906705 4.32393e-006 -1.48711e-005 
0.00092329 1.28488e-005 -4.2339e-005 0.00100045 2.57882e-005 -7.74499e-005 0.00105314 2.78853e-005 -7.93041e-005 
0.00114919 1.80583e-005 -4.7029e-005 0.00117382 6.54673e-006 -1.71639e-005 0.00114957 -1.81085e-005 4.56332e-005 
0.00105373 -2.8002e-005 7.83083e-005 0.00100099 -2.59305e-005 7.66646e-005 0.000923563 -1.30159e-005 4.18475e-005 
0.000906798 -4.4944e-006 1.44404e-005 0.00214503 -7.18252e-006 -4.3213e-006 0.00216374 -2.15535e-005 -1.12645e-005 
0.00225498 -4.47723e-005 -2.14571e-005 0.0023208 -4.94519e-005 -2.29335e-005 0.00244742 -3.3242e-005 -1.50974e-005 
0.00248126 -1.22839e-005 -6.31918e-006 0.00244835 3.30174e-005 1.25994e-005 0.00232213 4.95565e-005 2.09668e-005 
0.00225615 4.49923e-005 1.97234e-005 0.00216427 2.1871e-005 9.79938e-006 0.0021452 7.51091e-006 2.90267e-006 
0.00208581 -2.11121e-005 -4.89211e-006 0.00210186 -6.35328e-005 -1.31653e-005 0.00218405 -0.00013392 -2.60558e-005 
0.00224696 -0.000149452 -2.84393e-005 0.00237604 -0.000102526 -1.92959e-005 0.00241228 -3.80855e-005 -7.91231e-006 
0.002377 0.000101881 1.68395e-005 0.00224822 0.000149807 2.66404e-005 0.0021851 0.000134602 2.45087e-005 
0.0021023 6.44689e-005 1.18678e-005 0.00208596 2.20721e-005 3.63124e-006 0.00181497 -4.27491e-005 -7.81377e-006 
0.00181372 -0.000130402 -2.30374e-005 0.0019829 -0.000269863 -3.46557e-005 0.00203818 -0.000340904 -4.5833e-005 
0.00213396 -0.000281393 -3.95181e-005 0.00220241 -4.96516e-005 -8.16288e-006 0.00213509 0.00028042 3.74644e-005 
0.00203896 0.000341804 4.47808e-005 0.00198311 0.000271611 3.39751e-005 0.00181358 0.000132354 2.25869e-005 
0.00181491 4.46769e-005 7.31865e-006 0.00163238 -4.65597e-005 -1.00612e-005 0.00161426 -0.000143372 -3.07851e-005 
0.00157639 -0.000335033 -6.26456e-005 0.001408 -0.000473325 -0.000110654 0.00141234 -0.000412629 -9.5665e-005 
0.00144048 -4.01542e-005 -9.98264e-006 0.00141269 0.000412583 9.5115e-005 0.00140689 0.000475387 0.000111969 
0.00157483 0.00033754 6.35341e-005 0.00161358 0.00014554 3.09855e-005 0.00163213 4.86486e-005 1.01232e-005 
0.00130308 -3.03996e-005 -1.46571e-005 0.00124269 -9.52548e-005 -4.70261e-005 0.00113423 -0.000270153 -9.79262e-005 
0.000716607 -0.000398904 -0.000180076 0.000376341 -0.000292744 -0.000109601 -9.62551e-005 6.12768e-006 2.26773e-006 
0.000374849 0.000292963 0.000111764 0.000712801 0.000400948 0.000185397 0.00113013 0.000272397 0.000101013 
0.0012407 9.67184e-005 4.85881e-005 0.00130241 3.17518e-005 1.58095e-005 0.00121944 -1.10423e-005 -1.59315e-005 
0.00114568 -3.4756e-005 -5.16191e-005 0.000886462 -4.58978e-005 -0.000119282 0.000328897 -3.64613e-005 -0.000212144 
2.34174e-006 6.36397e-006 2.49323e-005 6.80386e-005 1.20818e-006 3.64424e-006 2.44461e-006 -5.92808e-006 -2.56879e-005 
0.00032416 3.66503e-005 0.000219864 0.000880768 4.62969e-005 0.000123821 0.00114329 3.52931e-005 5.35694e-005 
0.00121864 1.15335e-005 1.73789e-005 0.00130308 3.04021e-005 -1.46569e-005 0.00124269 9.52586e-005 -4.70258e-005 
0.00113423 0.000270158 -9.79256e-005 0.000716606 0.000398909 -0.000180074 0.000376349 0.000292756 -0.000109598 
-9.61708e-005 -6.13174e-006 2.29236e-006 0.000374859 -0.000292969 0.000111766 0.000712804 -0.000400951 0.000185396 
0.00113014 -0.000272399 0.000101013 0.0012407 -9.67183e-005 4.85882e-005 0.00130241 -3.17505e-005 1.58096e-005 
0.00163238 4.65621e-005 -1.0061e-005 0.00161426 0.000143376 -3.07848e-005 0.00157639 0.000335037 -6.26452e-005 
0.00140801 0.00047333 -0.000110654 0.00141234 0.000412631 -9.56651e-005 0.00144049 4.01555e-005 -9.98049e-006 
0.00141269 -0.000412583 9.51171e-005 0.00140689 -0.000475389 0.000111969 0.00157484 -0.000337541 6.35344e-005 
0.00161358 -0.00014554 3.09857e-005 0.00163214 -4.86473e-005 1.01235e-005 0.00181497 4.27515e-005 -7.81351e-006 
0.00181372 0.000130406 -2.30371e-005 0.00198291 0.000269867 -3.46554e-005 0.00203818 0.000340908 -4.58327e-005 
0.00213397 0.000281395 -3.95179e-005 0.00220241 4.96534e-005 -8.16226e-006 0.00213509 -0.000280419 3.7465e-005 
0.00203896 -0.000341805 4.47812e-005 0.00198311 -0.000271611 3.39754e-005 0.00181358 -0.000132354 2.25871e-005 
0.00181491 -4.46754e-005 7.3189e-006 0.00208581 2.11144e-005 -4.89197e-006 0.00210186 6.35356e-005 -1.31652e-005 
0.00218405 0.000133924 -2.60556e-005 0.00224697 0.000149456 -2.84392e-005 0.00237604 0.000102529 -1.92957e-005 
0.00241228 3.80875e-005 -7.91205e-006 0.002377 -0.00010188 1.68398e-005 0.00224822 -0.000149807 2.66407e-005 
0.0021851 -0.000134602 2.45089e-005 0.0021023 -6.44677e-005 1.1868e-005 0.00208596 -2.20704e-005 3.63139e-006 
0.00214503 7.18479e-006 -4.32125e-006 0.00216374 2.15562e-005 -1.12645e-005 0.00225498 4.47756e-005 -2.1457e-005 
0.0023208 4.94552e-005 -2.29335e-005 0.00244742 3.32446e-005 -1.50973e-005 0.00248126 1.2286e-005 -6.31909e-006 
0.00244835 -3.30163e-005 1.25995e-005 0.00232213 -4.95559e-005 2.09669e-005 0.00225615 -4.49917e-005 1.97235e-005 
0.00216427 -2.18698e-005 9.79944e-006 0.00214521 -7.50917e-006 2.90272e-006 0.00521597 -4.80347e-006 1.88526e-005 
0.00523199 -1.43328e-005 5.62382e-005 0.00530806 -2.90449e-005 0.000105812 0.00536094 -3.15809e-005 0.000109708 
0.00545901 -2.07593e-005 6.62074e-005 0.00548462 -7.81558e-006 2.38429e-005 0.0054603 2.00997e-005 -6.58082e-005 
0.00536287 3.13853e-005 -0.000110309 0.00530981 2.90348e-005 -0.000106917 0.00523284 1.45142e-005 -5.80299e-005 
0.00521626 5.01419e-006 -2.07853e-005 0.00517477 -1.40481e-005 2.09303e-005 0.00518942 -4.20151e-005 6.24949e-005 
0.00526114 -8.60658e-005 0.000119458 0.00531291 -9.42546e-005 0.000125247 0.00541291 -6.27909e-005 7.72586e-005 
0.00543987 -2.37273e-005 2.80968e-005 0.0054143 6.07994e-005 -7.64726e-005 0.00531487 9.37019e-005 -0.000125719 
0.00526286 8.60633e-005 -0.00012052 0.00519022 4.25568e-005 -6.43153e-005 0.00517503 1.46697e-005 -2.29002e-005 
0.0049886 -2.78219e-005 3.08934e-005 0.00499456 -8.40994e-005 9.28963e-005 0.00485626 -0.000176805 0.000170299 
0.00491763 -0.000213523 0.000195844 0.00499729 -0.000168292 0.000148568 0.00504642 -3.08906e-005 2.61076e-005 
0.00499932 0.000164103 -0.000146359 0.00491967 0.000212252 -0.000195683 0.00485752 0.00017729 -0.000171533 
0.00499499 8.52887e-005 -9.49043e-005 0.00498874 2.91124e-005 -3.30713e-005 0.00486516 -2.98879e-005 3.80032e-005 
0.00486287 -9.09946e-005 0.000114977 0.00459611 -0.000210605 0.000249925 0.00460562 -0.000269953 0.000311407 
0.00465525 -0.000221058 0.000255095 0.00469321 -4.04235e-005 4.71092e-005 0.00465705 0.000216011 -0.000250312 
0.00460667 0.000269005 -0.000310833 0.0045962 0.000211575 -0.000251365 0.00486292 9.23565e-005 -0.000117167 
0.00486516 3.1314e-005 -4.03552e-005 0.00464649 -1.90638e-005 5.15378e-005 0.00462434 -5.87842e-005 0.000157875 
0.00433082 -0.000162754 0.000337456 0.00425644 -0.00021656 0.000451375 0.00423691 -0.000158606 0.000367674 
0.00420059 -2.11248e-005 5.85405e-005 0.00423596 0.000156014 -0.00036256 0.00425467 0.000216463 -0.000451463 
0.00432887 0.000163816 -0.000339478 0.00462335 5.97499e-005 -0.00016052 0.00464616 2.00158e-005 -5.42719e-005 
0.00459176 -6.88558e-006 5.51096e-005 0.00456352 -2.12997e-005 0.00016938 0.00418995 -2.70267e-005 0.000386212 
0.00406568 -3.58537e-005 0.000529442 0.00401779 -1.98931e-005 0.000368695 0.00392114 -1.14439e-006 3.81486e-005 
0.0040146 1.97806e-005 -0.000368797 0.00406143 3.59045e-005 -0.000530841 0.00418655 2.72312e-005 -0.000388735 
0.00456219 2.1658e-005 -0.000172169 0.00459131 7.23366e-006 -5.79546e-005 0.00464649 1.90649e-005 5.15379e-005 
0.00462434 5.87855e-005 0.000157875 0.00433082 0.000162756 0.000337456 0.00425644 0.000216562 0.000451375 
0.00423691 0.000158607 0.000367675 0.00420059 2.11255e-005 5.85405e-005 0.00423596 -0.000156014 -0.00036256 
0.00425467 -0.000216463 -0.000451463 0.00432887 -0.000163816 -0.000339478 0.00462335 -5.97493e-005 -0.00016052 
0.00464616 -2.0015e-005 -5.42718e-005 0.00486516 2.98889e-005 3.80033e-005 0.00486287 9.09958e-005 0.000114977 
0.00459611 0.000210607 0.000249925 0.00460562 0.000269955 0.000311407 0.00465525 0.000221059 0.000255095 
0.00469321 4.04243e-005 4.71093e-005 0.00465705 -0.000216011 -0.000250312 0.00460667 -0.000269005 -0.000310833 
0.0045962 -0.000211574 -0.000251365 0.00486292 -9.23558e-005 -0.000117167 0.00486516 -3.13131e-005 -4.03551e-005 
0.0049886 2.7823e-005 3.08935e-005 0.00499456 8.41006e-005 9.28964e-005 0.00485626 0.000176807 0.000170299 
0.00491763 0.000213525 0.000195844 0.00499729 0.000168293 0.000148568 0.00504642 3.08915e-005 2.61077e-005 
0.00499933 -0.000164102 -0.000146359 0.00491967 -0.000212252 -0.000195683 0.00485752 -0.00017729 -0.000171533 
0.00499499 -8.5288e-005 -9.49043e-005 0.00498874 -2.91115e-005 -3.30712e-005 0.00517477 1.40492e-005 2.09304e-005 
0.00518942 4.20163e-005 6.2495e-005 0.00526114 8.60671e-005 0.000119458 0.00531291 9.42559e-005 0.000125247 
0.00541291 6.2792e-005 7.72587e-005 0.00543987 2.37282e-005 2.80969e-005 0.0054143 -6.07987e-005 -7.64725e-005 
0.00531487 -9.37013e-005 -0.000125719 0.00526286 -8.60627e-005 -0.00012052 0.00519022 -4.25559e-005 -6.43152e-005 
0.00517503 -1.46687e-005 -2.29001e-005 0.00521597 4.80457e-006 1.88527e-005 0.005232 1.4334e-005 5.62382e-005 
0.00530806 2.90462e-005 0.000105812 0.00536095 3.15822e-005 0.000109708 0.00545901 2.07604e-005 6.62074e-005 
0.00548462 7.81652e-006 2.3843e-005 0.0054603 -2.0099e-005 -6.58082e-005 0.00536287 -3.13847e-005 -0.000110309 
0.00530981 -2.90341e-005 -0.000106917 0.00523284 -1.45133e-005 -5.80299e-005 0.00521626 -5.01321e-006 -2.07852e-005 
0.00856402 -1.34965e-006 1.51799e-005 0.00857414 -3.96873e-006 4.45048e-005 0.00861934 -7.46251e-006 8.11264e-005 
0.00864844 -7.74087e-006 8.25404e-005 0.00869833 -4.68137e-006 4.83496e-005 0.00871059 -1.71341e-006 1.7521e-005 
0.00869896 4.56674e-006 -4.72858e-005 0.00864949 7.70862e-006 -8.22878e-005 0.00862034 7.47121e-006 -8.13291e-005 
0.00857468 4.03102e-006 -4.53891e-005 0.00856421 1.42241e-006 -1.6214e-005 0.0085501 -3.88846e-006 1.61929e-005 
0.00856024 -1.14405e-005 4.74998e-005 0.00860574 -2.1553e-005 8.69535e-005 0.00863526 -2.23815e-005 8.8711e-005 
0.00868623 -1.35553e-005 5.2208e-005 0.00869883 -4.95878e-006 1.89451e-005 0.00868687 1.3236e-005 -5.10486e-005 
0.00863632 2.22973e-005 -8.84332e-005 0.00860675 2.15846e-005 -8.71616e-005 0.00856077 1.16225e-005 -4.84237e-005 
0.00855029 4.09957e-006 -1.72722e-005 0.00848937 -7.2069e-006 2.07408e-005 0.0084994 -2.12628e-005 6.09957e-005 
0.00854563 -4.0375e-005 0.00011351 0.0085766 -4.2104e-005 0.000117003 0.00863175 -2.56141e-005 7.00122e-005 
0.00864568 -9.33256e-006 2.54862e-005 0.00863243 2.5144e-005 -6.85241e-005 0.00857765 4.20388e-005 -0.000116687 